Process 0 of 2 is on gollum289.lsa.umich.edu - thread support 0
initial socket setup ...start
initial socket setup ...done 
now start server 0 ... 
Process 1 of 2 is on gollum289.lsa.umich.edu - thread support 0
 Q-Chem 4.3.0 for Intel X86 EM64T Linux

 Parts of Q-Chem use Armadillo 5.200.1 (Boston Tea Smuggler).
 http://arma.sourceforge.net/

 Q-Chem begins on Tue Jan 16 16:55:17 2018  

Host: gollum289.lsa.umich.edu
0

     Scratch files written to /tmp/1349880.scr/qchem31514.0//
 Parallel job on  2  processors

Checking the input file for inconsistencies... 	...done.

--------------------------------------------------------------
User input:
--------------------------------------------------------------
$rem
correlation    NONE
EXCHANGE B3LYP
basis laNL2DZ
ECP LANL2DZ
unrestricted   false

jobtype sp
nbo 1

scf_algorithm rca_diis
scf_max_cycles 250

symmetry off
sym_ignore true

print_orbitals 10
molden_format true
$end

$molecule
0 1
  P      2.16661469      0.95600069      1.08232498
  P      2.48434601     -1.13952864     -1.39202728
  C      2.32694880      0.40692505      2.89779495
  C      1.25295699      2.60533184      1.35845115
  C      1.37766393     -0.92146067     -2.93418166
  C      3.05842367     -2.92758659     -1.68311403
  C      0.65502963     -0.13485518      0.55730916
  C      1.11558260     -1.45510183     -0.07038917
  H      1.56614267     -2.10467466      0.68930295
  H      0.27644704     -1.99641519     -0.52586519
  H      0.08565288      0.46073717     -0.16878432
  H      0.00514007     -0.31000953      1.42429307
  H      2.20833213     -3.60373097     -1.82770497
  H      3.64379518     -3.24670901     -0.81759295
  H      3.70046751     -2.96737722     -2.56739449
  H      2.72335813     -0.61067868      2.92158224
  H      1.35634007      0.43936862      3.40479580
  H      3.02513455      1.06310478      3.42477033
  H      0.93503169      3.00633060      0.39390704
  H      1.93663910      3.32336575      1.81998321
  H      0.38083495      2.47030557      2.00763755
  H      1.99756353     -0.70981898     -3.80872357
  H      0.70088365     -0.07587317     -2.77668192
  H      0.78265901     -1.82253656     -3.12065196
 Co      3.80096213      0.41820466     -0.41482271
  H      3.97912788     -0.74192259      0.54578296
  P      6.02314195      0.50822448     -0.26153682
  H      4.98817742      1.33195273      2.32682333
  C      6.06482127      1.36250094      2.45659677
  C      6.62994323      1.77727319      3.66164631
  H      6.01837269      2.07846130      4.50474393
  C      8.02499638      1.80700588      3.80008600
  O      8.49864489      2.23617154      5.03706467
  C      8.84742819      1.41727815      2.73340678
  H      9.92701114      1.42965866      2.82459581
  C      8.26126266      1.00253394      1.53084530
  H      8.90535805      0.68882351      0.71453856
  C      6.86844517      0.97111380      1.37504807
  C      8.14482417     -3.09892667     -0.20816405
  C      7.47379644     -1.93898858      0.17234806
  C      7.07994784     -0.97752766     -0.77896589
  C      7.37334335     -1.22894620     -2.12562173
  C      8.05309048     -2.38809309     -2.52505971
  H      8.26668762     -2.54308107     -3.57612904
  H      7.06109443     -0.52836618     -2.89330984
  H      7.25114236     -1.77965594      1.22205509
  H      8.44862200     -3.84108314      0.52136647
  C      8.44054751     -3.32509071     -1.56017869
  O      9.12016789     -4.50924905     -1.83849935
  H      4.24807072      3.59457152     -6.67750241
  H      3.84368708      3.98962964     -4.28513790
  C      4.30851262      2.76321499     -5.98544340
  C      4.08219882      2.98548625     -4.62084306
  C      4.61050533      1.46906475     -6.43086285
  C      4.14819135      1.93904871     -3.69140169
  P      3.93859027      2.21569663     -1.82210123
  C      4.68408864      0.40999873     -5.51408545
  C      4.45400775      0.64860375     -4.15976946
  C      2.75365996      3.68652926     -1.82144639
  H      1.27028975      2.63139844     -2.97651906
  C      1.50597870      3.55027162     -2.44845037
  H      4.91872886     -0.58153205     -5.88467237
  H      3.98059639      5.04002671     -0.65420815
  C      3.03005184      4.89448699     -1.15510023
  H      4.50703942     -0.16672250     -3.44415769
  C      0.55420183      4.57652813     -2.42045900
  C      2.09257122      5.92663130     -1.11660237
  C      0.85127079      5.77035264     -1.74876596
  H     -0.39644250      4.43501075     -2.92025696
  H      2.30013754      6.85907089     -0.60444917
  O     -0.01410727      6.85537167     -1.65572059
  C      6.70117712      1.93324442     -1.38293095
  O      4.85308731      1.13243023     -7.75867432
  C      5.63933532      3.03455614     -1.44257888
  H      5.55268667      3.52336829     -0.46665674
  H      5.86733668      3.78857571     -2.20370633
  H      6.89750569      1.53638453     -2.38352962
  H      7.64398943      2.30308806     -0.96884241
  C      9.43589226     -4.82025544     -3.21915508
  C      9.93157818      2.27634235      5.25983381
  C      4.80842613      2.17819169     -8.76395581
  C     -1.32011058      6.76273817     -2.28175065
  H      5.03894399      1.67952368     -9.70469979
  H      5.55601420      2.95474557     -8.56364793
  H      3.81263154      2.63366920     -8.82144510
  H      9.94552817     -5.78274164     -3.18659407
  H     10.10024535     -4.06533094     -3.65701696
  H      8.52704797     -4.90325123     -3.82754957
  H     10.05149153      2.62687918      6.28445070
  H     10.42398247      2.97353140      4.57106636
  H     10.37971787      1.28104508      5.15454282
  H     -1.80239788      7.71811287     -2.07842556
  H     -1.91331175      5.94923178     -1.84732434
  H     -1.23313234      6.61533699     -3.36492507
$end


--------------------------------------------------------------
 ----------------------------------------------------------------
             Standard Nuclear Orientation (Angstroms)
    I     Atom           X                Y                Z
 ----------------------------------------------------------------
    1      P       2.1666146900     0.9560006900     1.0823249800
    2      P       2.4843460100    -1.1395286400    -1.3920272800
    3      C       2.3269488000     0.4069250500     2.8977949500
    4      C       1.2529569900     2.6053318400     1.3584511500
    5      C       1.3776639300    -0.9214606700    -2.9341816600
    6      C       3.0584236700    -2.9275865900    -1.6831140300
    7      C       0.6550296300    -0.1348551800     0.5573091600
    8      C       1.1155826000    -1.4551018300    -0.0703891700
    9      H       1.5661426700    -2.1046746600     0.6893029500
   10      H       0.2764470400    -1.9964151900    -0.5258651900
   11      H       0.0856528800     0.4607371700    -0.1687843200
   12      H       0.0051400700    -0.3100095300     1.4242930700
   13      H       2.2083321300    -3.6037309700    -1.8277049700
   14      H       3.6437951800    -3.2467090100    -0.8175929500
   15      H       3.7004675100    -2.9673772200    -2.5673944900
   16      H       2.7233581300    -0.6106786800     2.9215822400
   17      H       1.3563400700     0.4393686200     3.4047958000
   18      H       3.0251345500     1.0631047800     3.4247703300
   19      H       0.9350316900     3.0063306000     0.3939070400
   20      H       1.9366391000     3.3233657500     1.8199832100
   21      H       0.3808349500     2.4703055700     2.0076375500
   22      H       1.9975635300    -0.7098189800    -3.8087235700
   23      H       0.7008836500    -0.0758731700    -2.7766819200
   24      H       0.7826590100    -1.8225365600    -3.1206519600
   25      Co      3.8009621300     0.4182046600    -0.4148227100
   26      H       3.9791278800    -0.7419225900     0.5457829600
   27      P       6.0231419500     0.5082244800    -0.2615368200
   28      H       4.9881774200     1.3319527300     2.3268233300
   29      C       6.0648212700     1.3625009400     2.4565967700
   30      C       6.6299432300     1.7772731900     3.6616463100
   31      H       6.0183726900     2.0784613000     4.5047439300
   32      C       8.0249963800     1.8070058800     3.8000860000
   33      O       8.4986448900     2.2361715400     5.0370646700
   34      C       8.8474281900     1.4172781500     2.7334067800
   35      H       9.9270111400     1.4296586600     2.8245958100
   36      C       8.2612626600     1.0025339400     1.5308453000
   37      H       8.9053580500     0.6888235100     0.7145385600
   38      C       6.8684451700     0.9711138000     1.3750480700
   39      C       8.1448241700    -3.0989266700    -0.2081640500
   40      C       7.4737964400    -1.9389885800     0.1723480600
   41      C       7.0799478400    -0.9775276600    -0.7789658900
   42      C       7.3733433500    -1.2289462000    -2.1256217300
   43      C       8.0530904800    -2.3880930900    -2.5250597100
   44      H       8.2666876200    -2.5430810700    -3.5761290400
   45      H       7.0610944300    -0.5283661800    -2.8933098400
   46      H       7.2511423600    -1.7796559400     1.2220550900
   47      H       8.4486220000    -3.8410831400     0.5213664700
   48      C       8.4405475100    -3.3250907100    -1.5601786900
   49      O       9.1201678900    -4.5092490500    -1.8384993500
   50      H       4.2480707200     3.5945715200    -6.6775024100
   51      H       3.8436870800     3.9896296400    -4.2851379000
   52      C       4.3085126200     2.7632149900    -5.9854434000
   53      C       4.0821988200     2.9854862500    -4.6208430600
   54      C       4.6105053300     1.4690647500    -6.4308628500
   55      C       4.1481913500     1.9390487100    -3.6914016900
   56      P       3.9385902700     2.2156966300    -1.8221012300
   57      C       4.6840886400     0.4099987300    -5.5140854500
   58      C       4.4540077500     0.6486037500    -4.1597694600
   59      C       2.7536599600     3.6865292600    -1.8214463900
   60      H       1.2702897500     2.6313984400    -2.9765190600
   61      C       1.5059787000     3.5502716200    -2.4484503700
   62      H       4.9187288600    -0.5815320500    -5.8846723700
   63      H       3.9805963900     5.0400267100    -0.6542081500
   64      C       3.0300518400     4.8944869900    -1.1551002300
   65      H       4.5070394200    -0.1667225000    -3.4441576900
   66      C       0.5542018300     4.5765281300    -2.4204590000
   67      C       2.0925712200     5.9266313000    -1.1166023700
   68      C       0.8512707900     5.7703526400    -1.7487659600
   69      H      -0.3964425000     4.4350107500    -2.9202569600
   70      H       2.3001375400     6.8590708900    -0.6044491700
   71      O      -0.0141072700     6.8553716700    -1.6557205900
   72      C       6.7011771200     1.9332444200    -1.3829309500
   73      O       4.8530873100     1.1324302300    -7.7586743200
   74      C       5.6393353200     3.0345561400    -1.4425788800
   75      H       5.5526866700     3.5233682900    -0.4666567400
   76      H       5.8673366800     3.7885757100    -2.2037063300
   77      H       6.8975056900     1.5363845300    -2.3835296200
   78      H       7.6439894300     2.3030880600    -0.9688424100
   79      C       9.4358922600    -4.8202554400    -3.2191550800
   80      C       9.9315781800     2.2763423500     5.2598338100
   81      C       4.8084261300     2.1781916900    -8.7639558100
   82      C      -1.3201105800     6.7627381700    -2.2817506500
   83      H       5.0389439900     1.6795236800    -9.7046997900
   84      H       5.5560142000     2.9547455700    -8.5636479300
   85      H       3.8126315400     2.6336692000    -8.8214451000
   86      H       9.9455281700    -5.7827416400    -3.1865940700
   87      H      10.1002453500    -4.0653309400    -3.6570169600
   88      H       8.5270479700    -4.9032512300    -3.8275495700
   89      H      10.0514915300     2.6268791800     6.2844507000
   90      H      10.4239824700     2.9735314000     4.5710663600
   91      H      10.3797178700     1.2810450800     5.1545428200
   92      H      -1.8023978800     7.7181128700    -2.0784255600
   93      H      -1.9133117500     5.9492317800    -1.8473243400
   94      H      -1.2331323400     6.6153369900    -3.3649250700
 ----------------------------------------------------------------
 Nuclear Repulsion Energy =  5542.3819116631 hartrees
 There are      167 alpha and      167 beta electrons
 Requested basis set is LANL2DZ
 There are 242 shells and 512 basis functions

 Total QAlloc Memory Limit   2000 MB
 Mega-Array Size        61 MB
 MEM_STATIC part        62 MB
 A cutoff of  1.0D-09 yielded  11188 shell pairs
 There are     56409 function pairs (     57038 Cartesian)
 
 -------------------------------------------------------
 OpenMP Integral Computing Module                       
 Release: version 1.0, May 2013, Q-Chem Inc. Pittsburgh 
 -------------------------------------------------------
 Integral Job Info:
 Integral job number is                      11
 Integral operator is                         1
 short-range coefficients                     0
 long-range coefficients              100000000
 Omega coefficients                           0
 if combine SR and LR in K                    0
 Integral screening is                        0
 Integral computing path is                   2
 max size of driver memory is            800000
 size of driver memory is                593474
 size of scratch memory is             29522520
 max col of scratch BK array               1296
 max len of scratch array in speh3          155
 max len of scratch index in speh4           18
 max int batch size is                      520
 min int batch size is                       52
 fixed nKL is                                45
 max L of basis functions is                  2
 order of int derivative is                   0
 number of shells is                        242
 number of basis is                         514
 number of cartesian basis is               514
 number of contracted shell pairs         11188
 number of primitive shell pairs          35068
 maxK2 (contraction) of shell pair           36
 max number of K2 of shell pair               1
 max number of CS2 of shell pair           1700
 max number of PS2 of shell pair           5376
 mem total for path MDJ                  131862
 -------------------------------------------------------
 Requested basis set is LANL2DZ
 Compound shells will be simplified
 There are 322 shells and 512 basis functions
 A cutoff of  1.0D-09 yielded  20178 shell pairs
 There are     56246 function pairs (     56876 Cartesian)
 Smallest overlap matrix eigenvalue = 6.33E-04

 Scale SEOQF with 1.000000e-02/1.000000e-02/1.000000e-02

 Standard Electronic Orientation quadrupole field applied
 Nucleus-field energy     =     0.0000000187 hartrees
 length of FILE_MO_COEFS: 0 
 Guess from superposition of atomic densities
 Warning:  Energy on first SCF cycle will be non-variational
  NBasis: 512 NBas6D: 514 NB2: 56409 NB2car: 57038 NOrb: 512 
 A restricted hybrid HF-DFT SCF calculation will be
 performed using Relaxed Constraint Minimization + Pulay DIIS
 Exchange:     0.2000 Hartree-Fock + 0.0800 Slater + 0.7200 B88
 Correlation:  0.1900 VWN1RPA + 0.8100 LYP
 Using SG-1 standard quadrature grid
 SCF converges when DIIS error is below 1.0E-05
 ---------------------------------------
  Cycle       Energy         DIIS Error
 ---------------------------------------
    1   -1882.8835119071      4.24E-02
    2   -1871.8035382410      6.06E-03
    3   -1872.1952558947      2.04E-03
    4   -1872.5514073524      2.85E-03
    5   -1872.5845515078      2.03E-03
    6   -1872.6103506502      1.34E-03
    7   -1872.6944102514      9.25E-04 Done RCA. Switching to DIIS
    8   -1871.8171483571      7.02E-03
    9   -1872.7564928351      1.18E-03
   10   -1872.7692163551      9.48E-04
   11   -1872.7781215680      7.33E-04
   12   -1872.7861622380      4.57E-04
   13   -1872.7905090656      1.93E-04
   14   -1872.7914046974      8.10E-05
   15   -1872.7915224758      6.04E-05
   16   -1872.7916034858      4.33E-05
   17   -1872.7916641345      2.48E-05
   18   -1872.7916910666      1.04E-05
   19   -1872.7916966541      2.73E-06 Convergence criterion met
 ---------------------------------------
 SCF time:  CPU 795.18 s  wall 767.88 s
 SCF   energy in the final basis set = -1872.7916966541
 Total energy in the final basis set = -1872.7916966541
 
 --------------------------------------------------------------
 
                    Orbital Energies (a.u.)
 --------------------------------------------------------------
 
 Alpha MOs
 -- Occupied --
-19.174 -19.174 -19.166 -19.164 -10.251 -10.249 -10.242 -10.241
-10.241 -10.238 -10.234 -10.233 -10.193 -10.193 -10.192 -10.191
-10.190 -10.189 -10.187 -10.186 -10.185 -10.183 -10.182 -10.182
-10.181 -10.180 -10.179 -10.179 -10.177 -10.176 -10.176 -10.174
-10.173 -10.173 -10.173 -10.171 -10.163 -10.161 -10.161 -10.160
 -3.636  -2.350  -2.326  -2.310  -1.060  -1.059  -1.050  -1.048
 -0.859  -0.854  -0.847  -0.843  -0.783  -0.772  -0.765  -0.757
 -0.754  -0.750  -0.748  -0.747  -0.740  -0.738  -0.733  -0.710
 -0.707  -0.699  -0.697  -0.689  -0.675  -0.674  -0.648  -0.619
 -0.616  -0.614  -0.612  -0.606  -0.604  -0.589  -0.586  -0.578
 -0.561  -0.543  -0.541  -0.535  -0.527  -0.524  -0.518  -0.509
 -0.483  -0.480  -0.473  -0.470  -0.469  -0.468  -0.468  -0.461
 -0.459  -0.457  -0.454  -0.453  -0.450  -0.443  -0.442  -0.440
 -0.433  -0.430  -0.428  -0.426  -0.424  -0.421  -0.419  -0.417
 -0.414  -0.410  -0.409  -0.409  -0.407  -0.400  -0.398  -0.397
 -0.392  -0.389  -0.387  -0.382  -0.379  -0.378  -0.373  -0.372
 -0.366  -0.362  -0.357  -0.356  -0.350  -0.348  -0.340  -0.330
 -0.328  -0.323  -0.321  -0.320  -0.317  -0.316  -0.314  -0.314
 -0.310  -0.307  -0.306  -0.303  -0.299  -0.295  -0.290  -0.260
 -0.257  -0.256  -0.252  -0.245  -0.243  -0.240  -0.227  -0.222
 -0.213  -0.211  -0.204  -0.184  -0.172  -0.135  -0.121
 -- Virtual --
 -0.011  -0.004   0.000   0.001   0.003   0.011   0.012   0.017
  0.030   0.038   0.039   0.050   0.063   0.066   0.072   0.080
  0.089   0.090   0.095   0.096   0.100   0.101   0.102   0.105
  0.108   0.109   0.111   0.111   0.119   0.119   0.121   0.123
  0.130   0.134   0.139   0.141   0.144   0.146   0.149   0.150
  0.152   0.154   0.156   0.158   0.159   0.159   0.160   0.161
  0.161   0.163   0.166   0.168   0.168   0.171   0.172   0.174
  0.176   0.182   0.183   0.184   0.185   0.188   0.193   0.195
  0.196   0.201   0.204   0.205   0.206   0.210   0.214   0.217
  0.225   0.229   0.231   0.234   0.239   0.246   0.246   0.251
  0.253   0.254   0.262   0.264   0.273   0.277   0.288   0.298
  0.303   0.306   0.313   0.315   0.322   0.326   0.336   0.343
  0.350   0.351   0.357   0.362   0.367   0.373   0.374   0.387
  0.398   0.402   0.456   0.469   0.476   0.485   0.492   0.496
  0.501   0.506   0.510   0.513   0.516   0.522   0.524   0.528
  0.529   0.535   0.537   0.538   0.540   0.544   0.546   0.547
  0.547   0.552   0.554   0.561   0.564   0.566   0.569   0.570
  0.573   0.578   0.582   0.585   0.592   0.595   0.601   0.601
  0.606   0.607   0.610   0.614   0.618   0.618   0.622   0.624
  0.625   0.629   0.631   0.632   0.635   0.637   0.638   0.641
  0.645   0.649   0.650   0.652   0.655   0.659   0.663   0.666
  0.668   0.671   0.673   0.676   0.679   0.681   0.684   0.687
  0.691   0.694   0.705   0.707   0.714   0.715   0.720   0.727
  0.735   0.743   0.746   0.755   0.756   0.762   0.764   0.766
  0.775   0.779   0.787   0.793   0.796   0.807   0.821   0.830
  0.833   0.845   0.853   0.854   0.858   0.861   0.865   0.865
  0.869   0.872   0.874   0.877   0.879   0.881   0.881   0.886
  0.888   0.890   0.892   0.895   0.896   0.901   0.903   0.906
  0.907   0.911   0.914   0.919   0.926   0.928   0.932   0.936
  0.943   0.944   0.949   0.950   0.951   0.954   0.958   0.961
  0.963   0.972   0.975   0.978   0.980   0.984   0.993   0.996
  0.997   0.999   1.004   1.009   1.010   1.015   1.016   1.022
  1.030   1.035   1.039   1.041   1.044   1.055   1.057   1.057
  1.063   1.068   1.075   1.076   1.079   1.080   1.084   1.085
  1.089   1.091   1.093   1.099   1.106   1.110   1.111   1.117
  1.123   1.127   1.134   1.138   1.145   1.152   1.157   1.166
  1.172   1.178   1.184   1.188   1.198   1.205   1.212   1.217
  1.224   1.229   1.235   1.245   1.247   1.261   1.265   1.270
  1.276   1.288   1.292   1.302   1.324   1.328   1.345   1.349
  1.362   1.363   1.366   1.383   1.406   1.416   1.426   1.431
  1.464   1.478   1.488   1.522   1.525   1.567   1.590   1.594
  1.596   1.599   1.610   1.676   1.837   1.843   1.858   1.861
  2.078   2.082   2.087   2.089   8.438  16.568  17.072  17.931
 18.127
 --------------------------------------------------------------
 

                        RESTRICTED (RHF) MOLECULAR ORBITAL COEFFICIENTS
                         1         2         3         4         5         6
 eigenvalues:        -19.174   -19.174   -19.166   -19.164   -10.251   -10.249
   1  P 1   s       -0.00002  -0.00001   0.00000   0.00000  -0.00000   0.00001
   2  P 1   s        0.00010  -0.00003   0.00006   0.00004  -0.00011  -0.00016
   3  P 1   px      -0.00001   0.00001   0.00001  -0.00000   0.00002   0.00003
   4  P 1   py      -0.00002  -0.00001   0.00001   0.00000  -0.00003  -0.00004
   5  P 1   pz       0.00002   0.00001   0.00001  -0.00001  -0.00001  -0.00001
   6  P 1   px       0.00010  -0.00004   0.00010  -0.00001  -0.00010  -0.00037
   7  P 1   py       0.00004   0.00008  -0.00009  -0.00002  -0.00001   0.00030
   8  P 1   pz      -0.00009  -0.00010   0.00001   0.00007   0.00014   0.00020
   9  P 2   s       -0.00001  -0.00001   0.00001   0.00000  -0.00001   0.00001
  10  P 2   s        0.00002   0.00007  -0.00010   0.00001   0.00005  -0.00005
  11  P 2   px      -0.00001   0.00001   0.00001  -0.00000  -0.00003   0.00002
  12  P 2   py      -0.00000  -0.00001   0.00002   0.00001   0.00001  -0.00001
  13  P 2   pz      -0.00000  -0.00003  -0.00000  -0.00000  -0.00000  -0.00004
  14  P 2   px       0.00006   0.00001  -0.00003   0.00002   0.00014  -0.00006
  15  P 2   py       0.00005   0.00017  -0.00014  -0.00003  -0.00004   0.00014
  16  P 2   pz       0.00005   0.00009   0.00004   0.00005   0.00006   0.00006
  17  C 1   s       -0.00000  -0.00000   0.00000   0.00000  -0.00000   0.00002
  18  C 1   s       -0.00002  -0.00003   0.00001   0.00001  -0.00001   0.00005
  19  C 1   px       0.00000   0.00000   0.00001   0.00000   0.00000  -0.00000
  20  C 1   py      -0.00000   0.00000  -0.00000   0.00000  -0.00001   0.00000
  21  C 1   pz       0.00001   0.00000  -0.00001  -0.00000   0.00000  -0.00001
  22  C 1   s        0.00007   0.00020  -0.00003  -0.00007  -0.00003  -0.00026
  23  C 1   px      -0.00001   0.00001  -0.00002   0.00000  -0.00000   0.00002
  24  C 1   py       0.00003  -0.00002   0.00004  -0.00001   0.00004  -0.00004
  25  C 1   pz      -0.00005  -0.00002   0.00003   0.00001   0.00000  -0.00001
  26  C 2   s       -0.00000  -0.00000  -0.00000   0.00000  -0.00004   0.00001
  27  C 2   s       -0.00004  -0.00001  -0.00001   0.00002  -0.00012   0.00004
  28  C 2   px       0.00001  -0.00000  -0.00000   0.00000   0.00000  -0.00000
  29  C 2   py       0.00000   0.00000   0.00000   0.00000  -0.00000   0.00000
  30  C 2   pz       0.00002   0.00000   0.00000   0.00000   0.00006   0.00001
  31  C 2   s        0.00011   0.00001   0.00004  -0.00014   0.00033  -0.00027
  32  C 2   px      -0.00006   0.00001   0.00001   0.00001  -0.00004  -0.00003
  33  C 2   py      -0.00002   0.00002  -0.00003  -0.00004   0.00004   0.00009
  34  C 2   pz      -0.00009   0.00001  -0.00003  -0.00002  -0.00033  -0.00005
  35  C 3   s       -0.00000  -0.00000  -0.00000   0.00000   0.00000  -0.00001
  36  C 3   s       -0.00001  -0.00001  -0.00002   0.00000   0.00001  -0.00001
  37  C 3   px       0.00000  -0.00001   0.00000   0.00000  -0.00000  -0.00000
  38  C 3   py       0.00000  -0.00001   0.00000   0.00000   0.00000   0.00000
  39  C 3   pz      -0.00000  -0.00000   0.00000   0.00000  -0.00000   0.00001
  40  C 3   s        0.00004  -0.00003   0.00012  -0.00001  -0.00001   0.00011
  41  C 3   px       0.00000   0.00006  -0.00001   0.00001   0.00003   0.00001
  42  C 3   py      -0.00001  -0.00000   0.00002  -0.00001  -0.00001  -0.00002
  43  C 3   pz       0.00003   0.00003  -0.00002   0.00000   0.00004  -0.00005
  44  C 4   s       -0.00000  -0.00000   0.00000  -0.00000  -0.00001  -0.00001
  45  C 4   s       -0.00002  -0.00002   0.00000  -0.00002  -0.00003  -0.00002
  46  C 4   px       0.00000  -0.00001  -0.00000   0.00000  -0.00000   0.00000
  47  C 4   py      -0.00000  -0.00001  -0.00000   0.00000  -0.00000   0.00000
  48  C 4   pz      -0.00000   0.00000   0.00000  -0.00000  -0.00000   0.00001
  49  C 4   s        0.00009   0.00006  -0.00000   0.00012   0.00012   0.00015
  50  C 4   px      -0.00001   0.00001   0.00004   0.00001   0.00002  -0.00001
  51  C 4   py       0.00002   0.00010  -0.00002  -0.00004  -0.00004   0.00001
  52  C 4   pz       0.00001   0.00000  -0.00003  -0.00001  -0.00001  -0.00004
  53  C 5   s        0.00000  -0.00000  -0.00000   0.00000   0.00001   0.00001
  54  C 5   s        0.00002  -0.00001  -0.00001   0.00002   0.00002   0.00001
  55  C 5   px      -0.00001  -0.00000   0.00000  -0.00000  -0.00001   0.00000
  56  C 5   py       0.00001   0.00000  -0.00000   0.00000   0.00001   0.00001
  57  C 5   pz      -0.00000  -0.00000  -0.00000  -0.00000   0.00001  -0.00000
  58  C 5   s       -0.00007   0.00005   0.00004  -0.00012  -0.00012  -0.00000
  59  C 5   px       0.00006   0.00001  -0.00003   0.00003   0.00008   0.00005
  60  C 5   py      -0.00002  -0.00004   0.00005  -0.00000  -0.00006  -0.00014
  61  C 5   pz       0.00006   0.00003   0.00001   0.00001  -0.00003  -0.00002
  62  C 6   s       -0.00000  -0.00000  -0.00000   0.00000  -0.00000   0.00001
  63  C 6   s       -0.00001  -0.00000  -0.00001   0.00000  -0.00000   0.00005
  64  C 6   px      -0.00000  -0.00000   0.00000   0.00000   0.00000   0.00001
  65  C 6   py      -0.00000   0.00000  -0.00000  -0.00000   0.00000   0.00000
  66  C 6   pz      -0.00000   0.00000   0.00000  -0.00000  -0.00000   0.00000
  67  C 6   s        0.00004   0.00001   0.00005  -0.00001   0.00001  -0.00024
  68  C 6   px       0.00001   0.00001  -0.00003  -0.00002  -0.00000  -0.00004
  69  C 6   py       0.00003  -0.00006   0.00001   0.00003  -0.00001  -0.00008
  70  C 6   pz      -0.00002  -0.00003   0.00003   0.00001  -0.00001  -0.00005
  71  H 1   s       -0.00000   0.00001   0.00001  -0.00000   0.00001  -0.00001
  72  H 1   s        0.00002  -0.00005  -0.00006   0.00002  -0.00002   0.00009
  73  H 2   s       -0.00001  -0.00000   0.00001  -0.00001  -0.00000  -0.00000
  74  H 2   s        0.00004  -0.00002  -0.00008   0.00004   0.00001   0.00001
  75  H 3   s       -0.00002  -0.00000   0.00001  -0.00001  -0.00002   0.00000
  76  H 3   s        0.00017   0.00003  -0.00010   0.00013   0.00016   0.00005
  77  H 4   s       -0.00000   0.00000   0.00000  -0.00000   0.00001  -0.00001
  78  H 4   s        0.00004  -0.00006  -0.00005   0.00007   0.00008   0.00006
  79  H 5   s       -0.00000  -0.00000   0.00001  -0.00000  -0.00000  -0.00001
  80  H 5   s       -0.00000   0.00005  -0.00004  -0.00004  -0.00004  -0.00002
  81  H 6   s        0.00001  -0.00001   0.00000   0.00002   0.00002  -0.00000
  82  H 6   s       -0.00004   0.00004  -0.00002  -0.00011  -0.00013  -0.00001
  83  H 7   s        0.00000  -0.00002   0.00001   0.00002   0.00002   0.00001
  84  H 7   s       -0.00002   0.00009  -0.00007  -0.00011  -0.00012  -0.00012
  85  H 8   s       -0.00000   0.00001  -0.00001   0.00000   0.00001  -0.00003
  86  H 8   s        0.00002  -0.00013   0.00008   0.00002   0.00001   0.00015
  87  H 9   s       -0.00001   0.00000  -0.00000  -0.00001  -0.00001   0.00000
  88  H 9   s        0.00002  -0.00006  -0.00002   0.00004   0.00002   0.00009
  89  H 10  s       -0.00000   0.00001   0.00001  -0.00000  -0.00001  -0.00002
  90  H 10  s        0.00000  -0.00008  -0.00002   0.00004   0.00003   0.00017
  91  H 11  s        0.00003   0.00000   0.00000  -0.00001   0.00007   0.00001
  92  H 11  s       -0.00014  -0.00000  -0.00003   0.00012  -0.00046  -0.00003
  93  H 12  s       -0.00001   0.00001  -0.00002  -0.00001  -0.00004  -0.00001
  94  H 12  s        0.00010  -0.00005   0.00007   0.00012   0.00015   0.00008
  95  H 13  s       -0.00002   0.00001   0.00000  -0.00001  -0.00002   0.00000
  96  H 13  s        0.00003  -0.00003   0.00000   0.00008   0.00011   0.00006
  97  H 14  s       -0.00001  -0.00002   0.00001   0.00000   0.00000   0.00003
  98  H 14  s        0.00005   0.00010  -0.00009  -0.00000   0.00001  -0.00015
  99  H 15  s       -0.00000  -0.00001   0.00001  -0.00001  -0.00002   0.00001
 100  H 15  s        0.00003   0.00008  -0.00010   0.00007   0.00009  -0.00004
 101  H 16  s       -0.00001  -0.00000   0.00001  -0.00000  -0.00000  -0.00000
 102  H 16  s        0.00002   0.00006  -0.00007   0.00001   0.00002  -0.00004
 103  Co    s        0.00005   0.00008   0.00002  -0.00008  -0.00005  -0.00000
 104  Co    s        0.00007   0.00011   0.00001  -0.00012  -0.00006  -0.00003
 105  Co    s       -0.00046  -0.00058  -0.00012   0.00009  -0.00006   0.00021
 106  Co    px       0.00000  -0.00000   0.00000  -0.00000   0.00000   0.00001
 107  Co    py       0.00000   0.00000   0.00000  -0.00001  -0.00001  -0.00000
 108  Co    pz      -0.00000  -0.00001   0.00001   0.00000   0.00000  -0.00002
 109  Co    px      -0.00009   0.00008  -0.00005  -0.00024  -0.00027  -0.00025
 110  Co    py       0.00018  -0.00013   0.00017   0.00020   0.00040  -0.00053
 111  Co    pz      -0.00027   0.00023  -0.00039  -0.00010   0.00012   0.00110
 112  Co    px       0.00023  -0.00011  -0.00032   0.00040   0.00028   0.00017
 113  Co    py      -0.00020  -0.00003  -0.00015  -0.00023  -0.00031   0.00007
 114  Co    pz       0.00008   0.00042  -0.00018  -0.00011  -0.00008  -0.00055
 115  Co    d 1      0.00000   0.00000  -0.00000  -0.00000  -0.00000   0.00000
 116  Co    d 2      0.00000  -0.00000  -0.00000   0.00000  -0.00000  -0.00001
 117  Co    d 3     -0.00001   0.00000   0.00000  -0.00000   0.00000   0.00001
 118  Co    d 4      0.00000   0.00000   0.00001   0.00000   0.00000   0.00000
 119  Co    d 5     -0.00000   0.00000   0.00000  -0.00000   0.00000   0.00000
 120  Co    d 1     -0.00001  -0.00001   0.00001  -0.00000   0.00001  -0.00005
 121  Co    d 2     -0.00001   0.00003   0.00002  -0.00002   0.00001   0.00006
 122  Co    d 3      0.00004  -0.00001   0.00000   0.00002  -0.00002  -0.00003
 123  Co    d 4     -0.00000  -0.00001  -0.00002  -0.00001  -0.00002  -0.00004
 124  Co    d 5      0.00001  -0.00002  -0.00001  -0.00000  -0.00003   0.00001
 125  H 17  s       -0.00002   0.00000  -0.00001   0.00000   0.00001   0.00004
 126  H 17  s        0.00018  -0.00008   0.00021   0.00005   0.00008  -0.00044
 127  P 3   s       -0.00001  -0.00001   0.00004  -0.00004  -0.00000   0.00001
 128  P 3   s        0.00004   0.00001   0.00103  -0.00108   0.00008  -0.00000
 129  P 3   px       0.00002   0.00001   0.00010  -0.00006   0.00001  -0.00002
 130  P 3   py      -0.00001   0.00001   0.00002   0.00013   0.00002   0.00000
 131  P 3   pz      -0.00000   0.00000   0.00013   0.00007   0.00002  -0.00001
 132  P 3   px      -0.00018  -0.00009   0.00032  -0.00068  -0.00012   0.00003
 133  P 3   py       0.00004   0.00003  -0.00001   0.00003  -0.00016   0.00010
 134  P 3   pz       0.00005  -0.00009   0.00031   0.00001  -0.00010  -0.00007
 135  H 18  s       -0.00001   0.00001  -0.00003   0.00001  -0.00000   0.00001
 136  H 18  s        0.00013  -0.00002   0.00011   0.00007   0.00002  -0.00016
 137  C 7   s       -0.00000   0.00000   0.00002   0.00000   0.00000  -0.00001
 138  C 7   s       -0.00000   0.00001   0.00001   0.00001   0.00000  -0.00003
 139  C 7   px      -0.00000  -0.00000  -0.00019  -0.00000  -0.00000   0.00001
 140  C 7   py      -0.00000  -0.00001  -0.00007  -0.00001  -0.00000  -0.00001
 141  C 7   pz       0.00001   0.00000  -0.00020  -0.00000   0.00000  -0.00002
 142  C 7   s        0.00001   0.00008  -0.00691   0.00012  -0.00003   0.00009
 143  C 7   px       0.00008   0.00005  -0.00231   0.00013  -0.00001  -0.00013
 144  C 7   py      -0.00001   0.00003  -0.00030   0.00005   0.00001   0.00006
 145  C 7   pz      -0.00009   0.00002  -0.00096   0.00006  -0.00002   0.00014
 146  C 8   s        0.00000   0.00000  -0.00006   0.00000  -0.00000  -0.00000
 147  C 8   s        0.00000   0.00001  -0.00052   0.00001  -0.00000  -0.00001
 148  C 8   px       0.00000  -0.00000   0.00011   0.00000   0.00000   0.00000
 149  C 8   py      -0.00000  -0.00000   0.00004  -0.00000  -0.00000   0.00001
 150  C 8   pz       0.00000  -0.00000   0.00011   0.00000   0.00000   0.00000
 151  C 8   s        0.00001  -0.00006   0.00878  -0.00015   0.00001  -0.00008
 152  C 8   px      -0.00005   0.00000   0.00324  -0.00001  -0.00001   0.00007
 153  C 8   py      -0.00000   0.00002  -0.00233   0.00001  -0.00001  -0.00002
 154  C 8   pz      -0.00001   0.00008  -0.00654   0.00006  -0.00003  -0.00001
 155  H 19  s       -0.00000   0.00001   0.00043  -0.00000  -0.00000  -0.00000
 156  H 19  s       -0.00001  -0.00006   0.00241   0.00000   0.00002   0.00008
 157  C 9   s        0.00000   0.00000   0.00011  -0.00000   0.00000  -0.00002
 158  C 9   s        0.00001   0.00000   0.00079  -0.00000   0.00000  -0.00001
 159  C 9   px      -0.00000  -0.00000  -0.00004   0.00000   0.00000   0.00000
 160  C 9   py      -0.00000  -0.00000  -0.00003  -0.00000  -0.00000   0.00000
 161  C 9   pz      -0.00000   0.00000  -0.00008   0.00000   0.00000   0.00000
 162  C 9   s       -0.00000   0.00002   0.00061   0.00007  -0.00002  -0.00004
 163  C 9   px      -0.00003   0.00001   0.00841  -0.00002  -0.00002  -0.00000
 164  C 9   py       0.00001  -0.00002   0.00446  -0.00001   0.00001   0.00001
 165  C 9   pz       0.00001  -0.00006   0.01304  -0.00006   0.00002   0.00001
 166  O 1   s       -0.00000  -0.00001   0.99520   0.00007   0.00000  -0.00000
 167  O 1   s       -0.00000  -0.00000   0.03077  -0.00000  -0.00000   0.00000
 168  O 1   px       0.00000   0.00000   0.00126   0.00000  -0.00000  -0.00000
 169  O 1   py       0.00000   0.00000  -0.00063   0.00000  -0.00000  -0.00000
 170  O 1   pz       0.00000   0.00000  -0.00167   0.00000   0.00000  -0.00000
 171  O 1   s       -0.00000   0.00002  -0.02541   0.00002  -0.00000  -0.00000
 172  O 1   px       0.00000  -0.00001  -0.00200  -0.00000   0.00000   0.00001
 173  O 1   py      -0.00000  -0.00000   0.00204  -0.00000  -0.00000  -0.00000
 174  O 1   pz      -0.00000  -0.00001   0.00557  -0.00001  -0.00000   0.00000
 175  C 10  s       -0.00000   0.00000  -0.00004   0.00000   0.00000  -0.00000
 176  C 10  s        0.00000   0.00000  -0.00041   0.00001  -0.00000  -0.00000
 177  C 10  px       0.00000   0.00000   0.00014  -0.00000   0.00000   0.00000
 178  C 10  py      -0.00000  -0.00000   0.00006   0.00000  -0.00000   0.00000
 179  C 10  pz      -0.00000   0.00000   0.00019   0.00000  -0.00000  -0.00000
 180  C 10  s        0.00002  -0.00004   0.00711  -0.00013   0.00004   0.00004
 181  C 10  px      -0.00002   0.00003  -0.00759   0.00007  -0.00003  -0.00004
 182  C 10  py       0.00000  -0.00001  -0.00165  -0.00001   0.00000  -0.00000
 183  C 10  pz       0.00002  -0.00002  -0.00507   0.00002   0.00001   0.00002
 184  H 20  s        0.00000  -0.00000   0.00067   0.00000   0.00000   0.00000
 185  H 20  s        0.00000  -0.00001   0.00252  -0.00002   0.00001   0.00001
 186  C 11  s        0.00000  -0.00000   0.00003  -0.00000  -0.00000   0.00000
 187  C 11  s        0.00001   0.00000   0.00007  -0.00001   0.00000   0.00000
 188  C 11  px       0.00000   0.00000  -0.00001   0.00001  -0.00000  -0.00000
 189  C 11  py       0.00000   0.00000  -0.00010  -0.00000   0.00000  -0.00000
 190  C 11  pz       0.00000   0.00000  -0.00029   0.00000   0.00001   0.00000
 191  C 11  s       -0.00006   0.00001  -0.00796   0.00006  -0.00004  -0.00007
 192  C 11  px       0.00004  -0.00005  -0.00047  -0.00004   0.00004   0.00008
 193  C 11  py       0.00000   0.00001  -0.00113   0.00007  -0.00001  -0.00001
 194  C 11  pz      -0.00001   0.00002  -0.00322   0.00011  -0.00004  -0.00004
 195  H 21  s        0.00000  -0.00000   0.00007   0.00002   0.00000   0.00000
 196  H 21  s       -0.00003   0.00005  -0.00007   0.00004  -0.00006  -0.00004
 197  C 12  s       -0.00000  -0.00000  -0.00003  -0.00001  -0.00000  -0.00000
 198  C 12  s       -0.00000  -0.00001  -0.00027  -0.00008  -0.00001  -0.00001
 199  C 12  px      -0.00000  -0.00000  -0.00005   0.00000  -0.00000  -0.00001
 200  C 12  py       0.00000   0.00000  -0.00005   0.00003   0.00000  -0.00000
 201  C 12  pz       0.00001   0.00001  -0.00015   0.00002   0.00000  -0.00000
 202  C 12  s       -0.00003   0.00002   0.00297   0.00029   0.00010   0.00021
 203  C 12  px       0.00009  -0.00003   0.00058  -0.00006   0.00003   0.00002
 204  C 12  py      -0.00003  -0.00003   0.00087  -0.00018  -0.00000   0.00002
 205  C 12  pz      -0.00007  -0.00008   0.00254  -0.00033  -0.00003   0.00008
 206  C 13  s        0.00000  -0.00000  -0.00000   0.00006   0.00001   0.00000
 207  C 13  s        0.00001  -0.00001  -0.00001   0.00052   0.00002   0.00001
 208  C 13  px      -0.00000   0.00000   0.00000  -0.00008  -0.00001   0.00000
 209  C 13  py       0.00000   0.00000  -0.00000   0.00011   0.00000  -0.00000
 210  C 13  pz       0.00000   0.00000   0.00000   0.00009   0.00000  -0.00000
 211  C 13  s        0.00000   0.00004   0.00017  -0.00882  -0.00004  -0.00011
 212  C 13  px       0.00001  -0.00001  -0.00004   0.00263   0.00002   0.00000
 213  C 13  py      -0.00000   0.00002   0.00007  -0.00587  -0.00002  -0.00004
 214  C 13  pz      -0.00001  -0.00002  -0.00004   0.00424  -0.00002   0.00006
 215  C 14  s        0.00000  -0.00000   0.00000  -0.00002   0.00001   0.00000
 216  C 14  s        0.00001  -0.00001   0.00000  -0.00003   0.00002   0.00001
 217  C 14  px       0.00000   0.00000   0.00000   0.00012  -0.00001  -0.00000
 218  C 14  py      -0.00000  -0.00000  -0.00000  -0.00021  -0.00000   0.00000
 219  C 14  pz      -0.00000  -0.00001  -0.00001  -0.00015  -0.00001   0.00000
 220  C 14  s        0.00001   0.00003  -0.00009   0.00693  -0.00002   0.00004
 221  C 14  px      -0.00001  -0.00002  -0.00004   0.00081   0.00002   0.00003
 222  C 14  py       0.00001   0.00002   0.00010  -0.00096  -0.00002   0.00000
 223  C 14  pz       0.00004   0.00006   0.00011  -0.00226   0.00007  -0.00012
 224  C 15  s       -0.00000  -0.00000   0.00001   0.00003   0.00001   0.00000
 225  C 15  s       -0.00001  -0.00004   0.00008   0.00027   0.00002   0.00002
 226  C 15  px       0.00000   0.00001   0.00002   0.00007  -0.00000   0.00001
 227  C 15  py      -0.00000   0.00000   0.00003  -0.00014  -0.00000  -0.00001
 228  C 15  pz       0.00000   0.00000   0.00001  -0.00003   0.00000  -0.00000
 229  C 15  s        0.00010   0.00011  -0.00034  -0.00290  -0.00001  -0.00013
 230  C 15  px      -0.00001  -0.00005   0.00000  -0.00127   0.00005  -0.00008
 231  C 15  py       0.00003   0.00004  -0.00023   0.00247  -0.00005   0.00008
 232  C 15  pz      -0.00002  -0.00001  -0.00005   0.00008  -0.00001   0.00002
 233  C 16  s        0.00000  -0.00000  -0.00000  -0.00003   0.00001   0.00001
 234  C 16  s        0.00001  -0.00003  -0.00002  -0.00005   0.00003   0.00002
 235  C 16  px       0.00000   0.00000  -0.00000   0.00014  -0.00000  -0.00001
 236  C 16  py      -0.00000   0.00001  -0.00001  -0.00027  -0.00001  -0.00000
 237  C 16  pz      -0.00000  -0.00001  -0.00001   0.00004  -0.00000  -0.00000
 238  C 16  s       -0.00003   0.00005   0.00002   0.00798  -0.00007   0.00008
 239  C 16  px       0.00000   0.00004  -0.00003   0.00169   0.00001   0.00007
 240  C 16  py      -0.00001  -0.00011   0.00012  -0.00306   0.00002  -0.00006
 241  C 16  pz      -0.00002   0.00005   0.00009  -0.00017  -0.00002   0.00004
 242  C 17  s        0.00000  -0.00000  -0.00000   0.00004   0.00001   0.00001
 243  C 17  s        0.00001  -0.00001  -0.00000   0.00042   0.00002   0.00002
 244  C 17  px      -0.00000   0.00000  -0.00000  -0.00012  -0.00001  -0.00001
 245  C 17  py       0.00000  -0.00000  -0.00000   0.00019   0.00000   0.00000
 246  C 17  pz      -0.00000   0.00000   0.00000   0.00011   0.00000   0.00000
 247  C 17  s       -0.00002  -0.00007   0.00008  -0.00731  -0.00003  -0.00011
 248  C 17  px       0.00001   0.00001  -0.00004   0.00372   0.00001   0.00004
 249  C 17  py      -0.00001  -0.00002   0.00006  -0.00528  -0.00000  -0.00005
 250  C 17  pz      -0.00000  -0.00004  -0.00002  -0.00676  -0.00001  -0.00008
 251  H 22  s        0.00000  -0.00001  -0.00000  -0.00066   0.00001   0.00001
 252  H 22  s       -0.00001  -0.00000  -0.00001  -0.00253  -0.00003  -0.00006
 253  H 23  s        0.00001  -0.00001  -0.00001  -0.00004   0.00001   0.00001
 254  H 23  s       -0.00001   0.00013   0.00000  -0.00011  -0.00005  -0.00002
 255  H 24  s        0.00001   0.00000  -0.00002   0.00001   0.00002  -0.00000
 256  H 24  s       -0.00007  -0.00006  -0.00000   0.00007  -0.00010   0.00010
 257  H 25  s        0.00000   0.00000  -0.00000  -0.00044   0.00001  -0.00000
 258  H 25  s       -0.00001   0.00001   0.00003  -0.00241  -0.00002  -0.00002
 259  C 18  s        0.00000  -0.00000   0.00000  -0.00011   0.00002   0.00001
 260  C 18  s        0.00001  -0.00000   0.00000  -0.00080   0.00001   0.00000
 261  C 18  px      -0.00000   0.00000  -0.00000   0.00004  -0.00000  -0.00000
 262  C 18  py      -0.00000   0.00000  -0.00000  -0.00008  -0.00000   0.00000
 263  C 18  pz      -0.00000  -0.00000  -0.00000  -0.00003  -0.00000  -0.00000
 264  C 18  s       -0.00004   0.00002  -0.00001  -0.00051  -0.00004   0.00008
 265  C 18  px      -0.00001   0.00000   0.00003  -0.00775  -0.00002  -0.00003
 266  C 18  py       0.00002  -0.00000  -0.00002   0.01280   0.00005   0.00006
 267  C 18  pz       0.00000  -0.00001  -0.00005   0.00634  -0.00000   0.00005
 268  O 2   s       -0.00002   0.00001   0.00007  -0.99520  -0.00000  -0.00000
 269  O 2   s       -0.00000   0.00000   0.00001  -0.03078  -0.00001  -0.00000
 270  O 2   px       0.00000  -0.00000   0.00000   0.00064   0.00000   0.00000
 271  O 2   py      -0.00000   0.00000   0.00000  -0.00146  -0.00000  -0.00000
 272  O 2   pz      -0.00000  -0.00000  -0.00000   0.00150  -0.00000  -0.00000
 273  O 2   s        0.00002  -0.00001  -0.00002   0.02544   0.00003   0.00002
 274  O 2   px      -0.00001   0.00000  -0.00000  -0.00246  -0.00001  -0.00001
 275  O 2   py       0.00001  -0.00001  -0.00001   0.00505   0.00002   0.00001
 276  O 2   pz       0.00001  -0.00000   0.00001  -0.00282   0.00001   0.00000
 277  H 26  s        0.00000   0.00066  -0.00000   0.00000  -0.00001   0.00033
 278  H 26  s        0.00004   0.00253  -0.00001   0.00000  -0.00005   0.00322
 279  H 27  s       -0.00001   0.00006   0.00000   0.00000  -0.00000  -0.00009
 280  H 27  s       -0.00012  -0.00003   0.00001   0.00003   0.00027  -0.00085
 281  C 19  s       -0.00000  -0.00004   0.00000   0.00000  -0.00000   0.00325
 282  C 19  s       -0.00001  -0.00042   0.00001   0.00000  -0.00000  -0.00274
 283  C 19  px      -0.00000   0.00003  -0.00000   0.00000   0.00000  -0.00017
 284  C 19  py       0.00000  -0.00000  -0.00000   0.00000  -0.00000   0.00090
 285  C 19  pz       0.00000  -0.00025  -0.00000  -0.00000  -0.00000   0.00002
 286  C 19  s        0.00013   0.00729  -0.00009  -0.00004  -0.00012   0.02382
 287  C 19  px       0.00002  -0.00057  -0.00000  -0.00001  -0.00004   0.00138
 288  C 19  py      -0.00008  -0.00329   0.00003   0.00001   0.00016  -0.01206
 289  C 19  pz       0.00005   0.00873  -0.00003  -0.00000   0.00001   0.00641
 290  C 20  s       -0.00000   0.00003  -0.00000  -0.00000  -0.00001   0.00012
 291  C 20  s       -0.00001   0.00007   0.00000  -0.00000  -0.00001   0.00039
 292  C 20  px       0.00001  -0.00006  -0.00000   0.00000   0.00000  -0.00006
 293  C 20  py      -0.00001   0.00016   0.00000   0.00001   0.00002   0.00007
 294  C 20  pz       0.00000   0.00024   0.00000   0.00000  -0.00001   0.00037
 295  C 20  s        0.00001  -0.00798   0.00007  -0.00001   0.00007  -0.01228
 296  C 20  px      -0.00007  -0.00069   0.00002   0.00001   0.00005  -0.00134
 297  C 20  py       0.00014   0.00146  -0.00004  -0.00003  -0.00033   0.00552
 298  C 20  pz       0.00008   0.00313  -0.00003  -0.00002   0.00004   0.00238
 299  C 21  s        0.00000   0.00011  -0.00000   0.00000   0.00006   0.99529
 300  C 21  s        0.00000   0.00080  -0.00000   0.00001   0.00000   0.03645
 301  C 21  px       0.00000  -0.00001  -0.00000   0.00000   0.00000   0.00002
 302  C 21  py      -0.00000   0.00001  -0.00000   0.00000  -0.00000   0.00006
 303  C 21  pz      -0.00000   0.00009  -0.00000  -0.00000   0.00000  -0.00027
 304  C 21  s       -0.00007   0.00064   0.00001  -0.00010   0.00012  -0.03922
 305  C 21  px       0.00001   0.00233  -0.00001  -0.00000  -0.00003   0.00336
 306  C 21  py      -0.00005  -0.00082   0.00004   0.00006   0.00012  -0.00562
 307  C 21  pz      -0.00005  -0.01603   0.00004  -0.00003   0.00006  -0.01704
 308  C 22  s        0.00000  -0.00004   0.00000   0.00000  -0.00003  -0.00021
 309  C 22  s        0.00005  -0.00029   0.00000   0.00002  -0.00007  -0.00060
 310  C 22  px      -0.00002  -0.00002   0.00000   0.00001   0.00003  -0.00004
 311  C 22  py       0.00001   0.00004   0.00000   0.00000  -0.00001   0.00004
 312  C 22  pz       0.00001   0.00015  -0.00000   0.00000  -0.00002   0.00023
 313  C 22  s       -0.00019   0.00298   0.00001  -0.00002   0.00011   0.00828
 314  C 22  px       0.00007   0.00050  -0.00002  -0.00004  -0.00008   0.00079
 315  C 22  py      -0.00011  -0.00103  -0.00004  -0.00003   0.00007  -0.00032
 316  C 22  pz      -0.00023  -0.00239   0.00005  -0.00007   0.00045  -0.00553
 317  P 4   s        0.00004   0.00002   0.00000   0.00001  -0.00005   0.00005
 318  P 4   s        0.00111   0.00111  -0.00007   0.00002  -0.00199   0.00188
 319  P 4   px      -0.00015   0.00002  -0.00001   0.00001   0.00024   0.00001
 320  P 4   py       0.00008   0.00002  -0.00001  -0.00002  -0.00020  -0.00000
 321  P 4   pz      -0.00003  -0.00018  -0.00001  -0.00001   0.00003  -0.00033
 322  P 4   px       0.00004  -0.00011   0.00013  -0.00001  -0.00008   0.00010
 323  P 4   py       0.00068   0.00002   0.00019   0.00021  -0.00088  -0.00037
 324  P 4   pz      -0.00014  -0.00025   0.00004  -0.00004   0.00012  -0.00039
 325  C 23  s       -0.00000  -0.00006   0.00000  -0.00000   0.00000   0.00297
 326  C 23  s       -0.00001  -0.00052   0.00001  -0.00001   0.00001  -0.00251
 327  C 23  px       0.00000   0.00002  -0.00000   0.00000   0.00000   0.00008
 328  C 23  py       0.00000   0.00002  -0.00000  -0.00000   0.00000  -0.00083
 329  C 23  pz       0.00000  -0.00016   0.00000   0.00001   0.00000   0.00053
 330  C 23  s        0.00017   0.00877  -0.00005   0.00017  -0.00020   0.01991
 331  C 23  px      -0.00001  -0.00172   0.00001  -0.00004   0.00002  -0.00255
 332  C 23  py       0.00003   0.00644  -0.00001   0.00010  -0.00006   0.01176
 333  C 23  pz       0.00009   0.00379  -0.00006  -0.00001  -0.00017   0.00259
 334  C 24  s       -0.00000   0.00002  -0.00000   0.00000   0.00000   0.00006
 335  C 24  s       -0.00002   0.00002   0.00000   0.00000  -0.00000   0.00022
 336  C 24  px       0.00001  -0.00003  -0.00000  -0.00001  -0.00000  -0.00004
 337  C 24  py      -0.00001  -0.00005   0.00000   0.00001   0.00000   0.00000
 338  C 24  pz      -0.00001   0.00029   0.00000  -0.00002   0.00001   0.00037
 339  C 24  s       -0.00013  -0.00695   0.00004  -0.00005   0.00026  -0.01108
 340  C 24  px      -0.00004  -0.00005   0.00003   0.00003   0.00003   0.00000
 341  C 24  py       0.00000  -0.00126  -0.00004  -0.00011   0.00006  -0.00326
 342  C 24  pz       0.00017   0.00211  -0.00004   0.00015  -0.00025   0.00425
 343  C 25  s       -0.00003   0.00001   0.00000   0.00000   0.00022   0.00005
 344  C 25  s       -0.00026   0.00012   0.00001   0.00001   0.00059   0.00010
 345  C 25  px       0.00011   0.00002   0.00001   0.00000  -0.00014   0.00002
 346  C 25  py      -0.00013   0.00001   0.00000  -0.00000   0.00020   0.00000
 347  C 25  pz      -0.00002  -0.00003   0.00000   0.00000  -0.00001  -0.00004
 348  C 25  s        0.00292  -0.00052  -0.00001  -0.00005  -0.00837  -0.00027
 349  C 25  px      -0.00155  -0.00015  -0.00009  -0.00009   0.00407  -0.00017
 350  C 25  py       0.00237   0.00002  -0.00002   0.00003  -0.00412   0.00007
 351  C 25  pz       0.00040   0.00009  -0.00004  -0.00002   0.00004   0.00009
 352  H 28  s        0.00005  -0.00002   0.00001  -0.00001   0.00009   0.00001
 353  H 28  s       -0.00002   0.00007  -0.00009   0.00004   0.00092  -0.00020
 354  C 26  s        0.00003   0.00000   0.00000  -0.00000  -0.00014   0.00001
 355  C 26  s        0.00003   0.00000   0.00001  -0.00001  -0.00042   0.00002
 356  C 26  px       0.00012   0.00000  -0.00000   0.00000  -0.00024   0.00002
 357  C 26  py      -0.00027   0.00001   0.00000  -0.00000   0.00029   0.00001
 358  C 26  pz      -0.00009   0.00000   0.00000  -0.00000  -0.00002   0.00001
 359  C 26  s       -0.00802  -0.00001  -0.00007  -0.00005   0.01220  -0.00001
 360  C 26  px       0.00166   0.00009  -0.00003  -0.00003   0.00079  -0.00005
 361  C 26  py      -0.00305  -0.00003  -0.00005  -0.00002   0.00546  -0.00014
 362  C 26  pz      -0.00057  -0.00000  -0.00005  -0.00001   0.00289  -0.00011
 363  H 29  s       -0.00000   0.00043   0.00000   0.00001   0.00001   0.00034
 364  H 29  s        0.00000   0.00242  -0.00002   0.00000  -0.00006   0.00319
 365  H 30  s       -0.00001  -0.00001  -0.00001  -0.00001   0.00006  -0.00001
 366  H 30  s       -0.00007   0.00002   0.00003   0.00003   0.00056  -0.00000
 367  C 27  s        0.00002  -0.00000  -0.00000  -0.00000  -0.00007  -0.00000
 368  C 27  s        0.00005  -0.00002  -0.00001  -0.00001  -0.00026  -0.00001
 369  C 27  px       0.00024   0.00000   0.00000   0.00000  -0.00029   0.00000
 370  C 27  py      -0.00015   0.00000  -0.00000  -0.00000   0.00025   0.00001
 371  C 27  pz       0.00004  -0.00001  -0.00000  -0.00000  -0.00003  -0.00001
 372  C 27  s       -0.00699   0.00013   0.00006  -0.00000   0.01142   0.00003
 373  C 27  px       0.00244   0.00002  -0.00003   0.00001  -0.00495   0.00004
 374  C 27  py      -0.00039  -0.00013  -0.00002  -0.00003   0.00016  -0.00009
 375  C 27  pz       0.00093  -0.00007  -0.00001   0.00001  -0.00214  -0.00004
 376  H 31  s       -0.00001  -0.00002   0.00000  -0.00001   0.00002  -0.00008
 377  H 31  s       -0.00000   0.00021  -0.00005  -0.00013   0.00002  -0.00055
 378  C 28  s       -0.00004  -0.00000  -0.00000  -0.00000  -0.00335  -0.00000
 379  C 28  s       -0.00043  -0.00001  -0.00000  -0.00001   0.00270  -0.00001
 380  C 28  px      -0.00019  -0.00000   0.00000   0.00000   0.00042  -0.00000
 381  C 28  py       0.00016   0.00000  -0.00000   0.00000   0.00065  -0.00000
 382  C 28  pz      -0.00002  -0.00000  -0.00000  -0.00000   0.00047  -0.00000
 383  C 28  s        0.00731   0.00008   0.00004   0.00004  -0.02386   0.00011
 384  C 28  px       0.00845   0.00002   0.00001   0.00003  -0.01098   0.00007
 385  C 28  py      -0.00324  -0.00003   0.00002   0.00000  -0.00437   0.00004
 386  C 28  pz       0.00240   0.00000   0.00002   0.00002  -0.00695   0.00006
 387  C 29  s       -0.00006   0.00000   0.00000  -0.00000  -0.00305  -0.00000
 388  C 29  s       -0.00052   0.00000   0.00000  -0.00001   0.00252  -0.00000
 389  C 29  px      -0.00013  -0.00000  -0.00000  -0.00000  -0.00083  -0.00000
 390  C 29  py       0.00009  -0.00000   0.00000   0.00000  -0.00025   0.00000
 391  C 29  pz      -0.00003   0.00000  -0.00000  -0.00000  -0.00049   0.00000
 392  C 29  s        0.00890   0.00002  -0.00005   0.00005  -0.01993   0.00002
 393  C 29  px      -0.00033   0.00006   0.00001   0.00001   0.00390   0.00005
 394  C 29  py      -0.00699   0.00001   0.00002  -0.00003   0.00997  -0.00002
 395  C 29  pz      -0.00327   0.00003   0.00001  -0.00000   0.00624   0.00002
 396  C 30  s        0.00011  -0.00000   0.00000  -0.00000  -0.99529   0.00006
 397  C 30  s        0.00081  -0.00000   0.00000  -0.00000  -0.03646   0.00000
 398  C 30  px       0.00007  -0.00000  -0.00000   0.00000   0.00023  -0.00000
 399  C 30  py      -0.00007  -0.00000   0.00000  -0.00000  -0.00012   0.00000
 400  C 30  pz      -0.00000   0.00000  -0.00000  -0.00000   0.00005   0.00000
 401  C 30  s        0.00051   0.00005  -0.00000   0.00000   0.03927  -0.00005
 402  C 30  px      -0.01213   0.00001   0.00002  -0.00002   0.01052   0.00003
 403  C 30  py       0.01085   0.00002   0.00001   0.00004  -0.01489   0.00005
 404  C 30  pz      -0.00064   0.00000   0.00002   0.00001  -0.00190   0.00003
 405  H 32  s        0.00066  -0.00000   0.00000  -0.00000  -0.00033   0.00001
 406  H 32  s        0.00255   0.00001  -0.00001   0.00003  -0.00320   0.00003
 407  H 33  s        0.00044  -0.00000  -0.00000  -0.00000  -0.00033  -0.00000
 408  H 33  s        0.00239  -0.00001  -0.00000   0.00001  -0.00327  -0.00000
 409  O 3   s        0.99520  -0.00007   0.00000  -0.00002  -0.00011  -0.00000
 410  O 3   s        0.03079  -0.00000  -0.00000   0.00000  -0.00103  -0.00000
 411  O 3   px      -0.00044   0.00000   0.00000   0.00000   0.00010   0.00000
 412  O 3   py      -0.00188   0.00000   0.00000  -0.00000  -0.00020   0.00000
 413  O 3   pz      -0.00103  -0.00000   0.00000  -0.00000  -0.00005  -0.00000
 414  O 3   s       -0.02548  -0.00001   0.00000  -0.00002   0.00547  -0.00000
 415  O 3   px      -0.00041  -0.00000  -0.00000  -0.00001   0.00220  -0.00000
 416  O 3   py       0.00579   0.00000  -0.00000   0.00001  -0.00232  -0.00001
 417  O 3   pz       0.00239   0.00000  -0.00000   0.00000  -0.00004   0.00000
 418  C 31  s        0.00000   0.00000   0.00000  -0.00001  -0.00001   0.00000
 419  C 31  s        0.00001   0.00001   0.00002  -0.00006  -0.00003   0.00001
 420  C 31  px       0.00000   0.00000   0.00001   0.00001   0.00000  -0.00002
 421  C 31  py       0.00001   0.00000  -0.00000   0.00002  -0.00000   0.00000
 422  C 31  pz      -0.00000   0.00000   0.00000  -0.00001   0.00000   0.00000
 423  C 31  s       -0.00009  -0.00010  -0.00008   0.00022   0.00020   0.00007
 424  C 31  px       0.00002   0.00001  -0.00009  -0.00006   0.00001   0.00007
 425  C 31  py      -0.00011  -0.00003   0.00011  -0.00019   0.00009   0.00003
 426  C 31  pz       0.00000   0.00001  -0.00004   0.00020   0.00004  -0.00007
 427  O 4   s        0.00007   0.99520   0.00001   0.00001  -0.00000   0.00011
 428  O 4   s        0.00000   0.03078  -0.00000  -0.00000  -0.00000   0.00102
 429  O 4   px      -0.00000  -0.00046   0.00000   0.00000  -0.00000   0.00005
 430  O 4   py       0.00000   0.00201   0.00000   0.00000   0.00000  -0.00011
 431  O 4   pz      -0.00000   0.00072  -0.00000  -0.00000   0.00000  -0.00020
 432  O 4   s       -0.00002  -0.02547   0.00002   0.00001   0.00002  -0.00545
 433  O 4   px       0.00000   0.00138  -0.00000  -0.00000   0.00000   0.00050
 434  O 4   py      -0.00000  -0.00490  -0.00000  -0.00001  -0.00001  -0.00046
 435  O 4   pz      -0.00000  -0.00367   0.00001   0.00001   0.00000  -0.00311
 436  C 32  s        0.00001  -0.00000   0.00001   0.00000  -0.00002   0.00001
 437  C 32  s        0.00008  -0.00001   0.00006   0.00002  -0.00009   0.00004
 438  C 32  px      -0.00003   0.00000  -0.00001  -0.00001   0.00003   0.00001
 439  C 32  py       0.00001   0.00001   0.00000  -0.00000  -0.00001  -0.00000
 440  C 32  pz      -0.00000  -0.00000  -0.00000  -0.00000   0.00001  -0.00002
 441  C 32  s       -0.00031  -0.00001  -0.00029  -0.00007   0.00036  -0.00019
 442  C 32  px       0.00033   0.00007   0.00003   0.00009  -0.00043   0.00006
 443  C 32  py      -0.00006  -0.00007   0.00001   0.00005  -0.00005   0.00009
 444  C 32  pz       0.00008   0.00000  -0.00001  -0.00004  -0.00017   0.00008
 445  H 34  s        0.00004  -0.00000  -0.00001   0.00001  -0.00007  -0.00000
 446  H 34  s       -0.00006   0.00007   0.00013   0.00000   0.00030  -0.00001
 447  H 35  s        0.00002  -0.00000   0.00001  -0.00000  -0.00003   0.00004
 448  H 35  s        0.00002   0.00004   0.00004  -0.00005   0.00005  -0.00011
 449  H 36  s       -0.00000  -0.00001   0.00000  -0.00003   0.00001   0.00003
 450  H 36  s       -0.00000   0.00009   0.00005   0.00016  -0.00003  -0.00018
 451  H 37  s        0.00001  -0.00000  -0.00000   0.00000  -0.00001   0.00001
 452  H 37  s       -0.00000   0.00004   0.00006  -0.00002  -0.00004  -0.00009
 453  C 33  s       -0.00000   0.00000  -0.00000   0.00006  -0.00001  -0.00001
 454  C 33  s       -0.00000   0.00001   0.00000   0.00046  -0.00001  -0.00001
 455  C 33  px       0.00000  -0.00000   0.00000   0.00022   0.00000   0.00000
 456  C 33  py      -0.00000   0.00000  -0.00000  -0.00025  -0.00000  -0.00000
 457  C 33  pz       0.00000  -0.00000   0.00000  -0.00074   0.00000   0.00000
 458  C 33  s        0.00001  -0.00002   0.00000  -0.00609   0.00002   0.00001
 459  C 33  px      -0.00000   0.00001  -0.00000   0.00063  -0.00001  -0.00001
 460  C 33  py       0.00000  -0.00001   0.00000  -0.00084   0.00001   0.00001
 461  C 33  pz       0.00000   0.00000  -0.00000  -0.00174  -0.00000  -0.00000
 462  C 34  s       -0.00000  -0.00000  -0.00006  -0.00000  -0.00000  -0.00000
 463  C 34  s       -0.00000  -0.00000  -0.00047  -0.00000  -0.00000   0.00000
 464  C 34  px      -0.00000  -0.00000  -0.00078   0.00000   0.00000   0.00000
 465  C 34  py       0.00000   0.00000  -0.00005   0.00000   0.00000   0.00000
 466  C 34  pz       0.00000   0.00000  -0.00021   0.00000   0.00000  -0.00000
 467  C 34  s        0.00001   0.00001   0.00612   0.00001   0.00000  -0.00001
 468  C 34  px       0.00000  -0.00000  -0.00188  -0.00000  -0.00000   0.00000
 469  C 34  py      -0.00000  -0.00000  -0.00022  -0.00000  -0.00000   0.00000
 470  C 34  pz      -0.00000  -0.00000  -0.00077  -0.00000  -0.00000   0.00000
 471  C 35  s       -0.00000  -0.00006   0.00000   0.00000  -0.00000  -0.00016
 472  C 35  s        0.00000  -0.00047   0.00000   0.00000  -0.00000  -0.00023
 473  C 35  px      -0.00000   0.00001  -0.00000   0.00000   0.00000  -0.00000
 474  C 35  py      -0.00000  -0.00052   0.00000  -0.00000  -0.00000   0.00003
 475  C 35  pz       0.00000   0.00062   0.00000   0.00000  -0.00000  -0.00004
 476  C 35  s        0.00000   0.00610   0.00000   0.00000  -0.00000  -0.00002
 477  C 35  px       0.00000  -0.00005   0.00000   0.00000  -0.00000  -0.00023
 478  C 35  py      -0.00000  -0.00109  -0.00000  -0.00000   0.00000   0.00072
 479  C 35  pz      -0.00000   0.00172  -0.00000  -0.00001   0.00001   0.00081
 480  C 36  s       -0.00006  -0.00000  -0.00000   0.00000   0.00015  -0.00001
 481  C 36  s       -0.00046  -0.00000  -0.00000   0.00001   0.00023  -0.00000
 482  C 36  px       0.00074  -0.00000  -0.00000  -0.00000   0.00004  -0.00000
 483  C 36  py      -0.00003   0.00000   0.00000  -0.00000  -0.00001   0.00000
 484  C 36  pz       0.00032   0.00000  -0.00000  -0.00000   0.00002  -0.00000
 485  C 36  s        0.00608   0.00000   0.00001  -0.00002   0.00002   0.00001
 486  C 36  px       0.00188   0.00000   0.00000  -0.00000  -0.00027   0.00000
 487  C 36  py      -0.00032  -0.00001  -0.00001   0.00001   0.00102  -0.00000
 488  C 36  pz       0.00069  -0.00000  -0.00000  -0.00000   0.00034  -0.00000
 489  H 38  s       -0.00000  -0.00035  -0.00000  -0.00000   0.00000   0.00020
 490  H 38  s       -0.00000  -0.00053  -0.00000  -0.00000   0.00000   0.00034
 491  H 39  s        0.00000  -0.00048   0.00000   0.00000  -0.00000  -0.00019
 492  H 39  s       -0.00000  -0.00084   0.00000   0.00000   0.00000  -0.00019
 493  H 40  s       -0.00000  -0.00048   0.00000   0.00000  -0.00000  -0.00018
 494  H 40  s        0.00000  -0.00083  -0.00000   0.00000   0.00000  -0.00018
 495  H 41  s       -0.00000   0.00000  -0.00000   0.00035  -0.00000   0.00000
 496  H 41  s        0.00000  -0.00000   0.00000   0.00053   0.00000   0.00000
 497  H 42  s       -0.00000   0.00000  -0.00000   0.00048  -0.00000  -0.00000
 498  H 42  s       -0.00000   0.00000   0.00000   0.00082  -0.00000  -0.00000
 499  H 43  s        0.00000   0.00000  -0.00000   0.00048   0.00000   0.00000
 500  H 43  s       -0.00001   0.00001  -0.00000   0.00082  -0.00001  -0.00001
 501  H 44  s       -0.00000  -0.00000  -0.00035  -0.00000  -0.00000   0.00000
 502  H 44  s        0.00000   0.00000  -0.00053   0.00000   0.00000   0.00000
 503  H 45  s       -0.00000  -0.00000  -0.00048  -0.00000  -0.00000   0.00000
 504  H 45  s       -0.00000  -0.00000  -0.00082   0.00000  -0.00000   0.00000
 505  H 46  s        0.00000  -0.00000  -0.00048   0.00000   0.00000   0.00000
 506  H 46  s       -0.00000  -0.00000  -0.00083  -0.00000  -0.00000   0.00000
 507  H 47  s       -0.00035   0.00000   0.00000   0.00000  -0.00020  -0.00000
 508  H 47  s       -0.00053   0.00000   0.00000  -0.00000  -0.00034   0.00000
 509  H 48  s       -0.00048  -0.00000   0.00000  -0.00000   0.00018  -0.00000
 510  H 48  s       -0.00082  -0.00000  -0.00001   0.00001   0.00018  -0.00000
 511  H 49  s       -0.00048  -0.00000  -0.00000   0.00000   0.00018  -0.00000
 512  H 49  s       -0.00083  -0.00000  -0.00000   0.00000   0.00020  -0.00000
                         7         8         9        10        11        12
 eigenvalues:        -10.242   -10.241   -10.241   -10.238   -10.234   -10.233
   1  P 1   s       -0.00001   0.00000  -0.00000   0.00000   0.00000   0.00000
   2  P 1   s        0.00007  -0.00001   0.00014  -0.00008  -0.00010  -0.00006
   3  P 1   px       0.00000  -0.00000  -0.00001   0.00002  -0.00000   0.00002
   4  P 1   py      -0.00000   0.00001   0.00002  -0.00000   0.00000  -0.00001
   5  P 1   pz       0.00001  -0.00001   0.00003   0.00001  -0.00001   0.00001
   6  P 1   px       0.00000   0.00004   0.00027  -0.00004  -0.00007  -0.00010
   7  P 1   py      -0.00002  -0.00007  -0.00013   0.00005   0.00004   0.00004
   8  P 1   pz      -0.00006   0.00005  -0.00005  -0.00017   0.00012  -0.00011
   9  P 2   s       -0.00001   0.00000   0.00001   0.00001   0.00000  -0.00001
  10  P 2   s        0.00016  -0.00001  -0.00004  -0.00006  -0.00004   0.00005
  11  P 2   px      -0.00002  -0.00000  -0.00001   0.00005  -0.00002   0.00000
  12  P 2   py       0.00000   0.00001   0.00004  -0.00001   0.00000  -0.00002
  13  P 2   pz      -0.00001  -0.00002   0.00000  -0.00000  -0.00000   0.00000
  14  P 2   px       0.00012   0.00004  -0.00007  -0.00022   0.00007   0.00002
  15  P 2   py       0.00009  -0.00005  -0.00035   0.00008  -0.00004   0.00016
  16  P 2   pz       0.00010   0.00010  -0.00001  -0.00009  -0.00002  -0.00005
  17  C 1   s       -0.00000  -0.00000   0.00001  -0.00001  -0.00000  -0.00001
  18  C 1   s       -0.00001  -0.00001   0.00001  -0.00003  -0.00001  -0.00002
  19  C 1   px       0.00000  -0.00000   0.00002   0.00000  -0.00001   0.00000
  20  C 1   py      -0.00000  -0.00000   0.00001   0.00000  -0.00000  -0.00000
  21  C 1   pz       0.00000   0.00001   0.00001  -0.00000  -0.00001  -0.00000
  22  C 1   s        0.00003   0.00004  -0.00003   0.00022   0.00003   0.00016
  23  C 1   px      -0.00000   0.00003  -0.00007  -0.00001   0.00003   0.00000
  24  C 1   py       0.00003  -0.00000  -0.00001  -0.00000   0.00001   0.00000
  25  C 1   pz      -0.00003   0.00000  -0.00004   0.00002   0.00005   0.00000
  26  C 2   s       -0.00001  -0.00000  -0.00001  -0.00001   0.00000  -0.00001
  27  C 2   s       -0.00003  -0.00000  -0.00002  -0.00004   0.00001  -0.00001
  28  C 2   px       0.00000   0.00000  -0.00000   0.00000   0.00000  -0.00000
  29  C 2   py      -0.00000  -0.00000   0.00000  -0.00001  -0.00000  -0.00000
  30  C 2   pz       0.00001  -0.00000  -0.00000  -0.00001   0.00000  -0.00000
  31  C 2   s        0.00006   0.00002   0.00008   0.00026  -0.00005   0.00010
  32  C 2   px       0.00000   0.00001   0.00004  -0.00002  -0.00000  -0.00000
  33  C 2   py      -0.00001  -0.00001  -0.00009   0.00010   0.00002   0.00006
  34  C 2   pz      -0.00006  -0.00000   0.00001   0.00007  -0.00002   0.00004
  35  C 3   s       -0.00000  -0.00000   0.00001   0.00000   0.00000  -0.00000
  36  C 3   s       -0.00001  -0.00000   0.00003   0.00001   0.00001  -0.00000
  37  C 3   px       0.00000  -0.00000  -0.00000  -0.00000   0.00000  -0.00000
  38  C 3   py       0.00001  -0.00000  -0.00001  -0.00000   0.00000  -0.00000
  39  C 3   pz      -0.00000   0.00000   0.00000   0.00000   0.00000  -0.00000
  40  C 3   s        0.00003   0.00002  -0.00022  -0.00006  -0.00004  -0.00002
  41  C 3   px       0.00000   0.00002   0.00006  -0.00002  -0.00001  -0.00001
  42  C 3   py      -0.00003   0.00000   0.00005   0.00001  -0.00001  -0.00000
  43  C 3   pz       0.00005   0.00002   0.00005  -0.00006   0.00002   0.00001
  44  C 4   s       -0.00001  -0.00000   0.00001   0.00001   0.00000   0.00000
  45  C 4   s       -0.00002  -0.00001   0.00002   0.00003   0.00001   0.00001
  46  C 4   px       0.00000  -0.00000  -0.00001  -0.00001   0.00000  -0.00000
  47  C 4   py      -0.00001  -0.00001  -0.00001  -0.00000  -0.00000  -0.00000
  48  C 4   pz      -0.00000  -0.00000  -0.00001   0.00000  -0.00000   0.00000
  49  C 4   s        0.00006  -0.00001  -0.00023  -0.00016  -0.00004  -0.00005
  50  C 4   px      -0.00001   0.00002   0.00006   0.00001  -0.00001  -0.00002
  51  C 4   py       0.00003   0.00003   0.00003   0.00006  -0.00001   0.00006
  52  C 4   pz      -0.00000  -0.00001   0.00002   0.00002  -0.00000   0.00001
  53  C 5   s        0.00000   0.00000   0.00001  -0.00001   0.00000  -0.00001
  54  C 5   s        0.00001   0.00000   0.00003  -0.00002   0.00001  -0.00001
  55  C 5   px      -0.00001   0.00000   0.00000   0.00001  -0.00000   0.00000
  56  C 5   py       0.00000  -0.00000  -0.00000  -0.00000   0.00000   0.00000
  57  C 5   pz       0.00000  -0.00000   0.00000  -0.00001  -0.00000  -0.00000
  58  C 5   s       -0.00009  -0.00001  -0.00016   0.00016  -0.00005   0.00008
  59  C 5   px       0.00007  -0.00001   0.00004  -0.00012   0.00003  -0.00004
  60  C 5   py      -0.00003   0.00002   0.00008  -0.00001  -0.00003  -0.00004
  61  C 5   pz       0.00001   0.00001   0.00006   0.00001   0.00002  -0.00000
  62  C 6   s       -0.00000  -0.00000   0.00001   0.00000   0.00001  -0.00000
  63  C 6   s       -0.00000  -0.00001   0.00001   0.00001   0.00001  -0.00001
  64  C 6   px      -0.00000   0.00000   0.00001  -0.00000   0.00000  -0.00000
  65  C 6   py      -0.00000  -0.00000  -0.00001   0.00001   0.00000   0.00000
  66  C 6   pz      -0.00000  -0.00000  -0.00000   0.00000   0.00000   0.00000
  67  C 6   s       -0.00000   0.00005  -0.00002  -0.00004  -0.00005   0.00003
  68  C 6   px       0.00001  -0.00001  -0.00006   0.00001  -0.00003   0.00004
  69  C 6   py       0.00002   0.00001   0.00015  -0.00008  -0.00000  -0.00006
  70  C 6   pz      -0.00002   0.00001   0.00003   0.00002  -0.00004  -0.00004
  71  H 1   s       -0.00001   0.00001  -0.00001   0.00001  -0.00000   0.00000
  72  H 1   s        0.00006  -0.00004   0.00017  -0.00010   0.00005  -0.00005
  73  H 2   s       -0.00001   0.00000  -0.00002   0.00001  -0.00001   0.00000
  74  H 2   s        0.00006  -0.00002   0.00013  -0.00008   0.00003  -0.00004
  75  H 3   s       -0.00002   0.00000  -0.00003   0.00003  -0.00001   0.00002
  76  H 3   s        0.00017   0.00000   0.00023  -0.00026   0.00009  -0.00010
  77  H 4   s       -0.00000   0.00000  -0.00001   0.00001  -0.00001   0.00001
  78  H 4   s        0.00007  -0.00003   0.00011  -0.00018   0.00004  -0.00009
  79  H 5   s       -0.00001   0.00000   0.00000   0.00001  -0.00001   0.00000
  80  H 5   s        0.00002   0.00001   0.00012   0.00006   0.00003   0.00005
  81  H 6   s        0.00001   0.00000  -0.00001  -0.00003  -0.00000  -0.00002
  82  H 6   s       -0.00002  -0.00001   0.00008   0.00016   0.00002   0.00011
  83  H 7   s       -0.00000  -0.00001  -0.00002  -0.00003   0.00000  -0.00002
  84  H 7   s       -0.00001   0.00002   0.00012   0.00020   0.00002   0.00012
  85  H 8   s        0.00000   0.00001   0.00001   0.00001  -0.00000   0.00001
  86  H 8   s        0.00003  -0.00005   0.00003  -0.00014  -0.00000  -0.00009
  87  H 9   s       -0.00001   0.00000  -0.00000   0.00001  -0.00000   0.00000
  88  H 9   s        0.00003  -0.00001   0.00000  -0.00012   0.00000  -0.00008
  89  H 10  s       -0.00000   0.00000   0.00001   0.00002   0.00002   0.00001
  90  H 10  s        0.00001  -0.00004   0.00002  -0.00014  -0.00011  -0.00009
  91  H 11  s        0.00001  -0.00001  -0.00002   0.00003  -0.00001   0.00001
  92  H 11  s       -0.00005   0.00002   0.00014  -0.00022   0.00002  -0.00009
  93  H 12  s       -0.00001   0.00000   0.00000   0.00003   0.00000   0.00001
  94  H 12  s        0.00007   0.00000   0.00001  -0.00029  -0.00001  -0.00014
  95  H 13  s       -0.00001   0.00000  -0.00001   0.00001  -0.00000   0.00001
  96  H 13  s        0.00006  -0.00001   0.00006  -0.00018   0.00002  -0.00009
  97  H 14  s       -0.00000  -0.00001  -0.00003  -0.00001  -0.00000  -0.00001
  98  H 14  s        0.00007   0.00004   0.00020   0.00003   0.00005   0.00005
  99  H 15  s       -0.00000  -0.00001  -0.00003   0.00002  -0.00001   0.00001
 100  H 15  s        0.00006   0.00003   0.00022  -0.00011   0.00005  -0.00003
 101  H 16  s       -0.00001  -0.00000  -0.00000   0.00000  -0.00001  -0.00000
 102  H 16  s        0.00003   0.00001   0.00015  -0.00001   0.00003   0.00001
 103  Co    s        0.00001   0.00010  -0.00001  -0.00006  -0.00012   0.00004
 104  Co    s        0.00001   0.00015  -0.00003  -0.00008  -0.00018   0.00007
 105  Co    s       -0.00036  -0.00009  -0.00075   0.00024  -0.00004  -0.00016
 106  Co    px      -0.00000  -0.00000   0.00001  -0.00001  -0.00001  -0.00001
 107  Co    py      -0.00000   0.00001   0.00000   0.00001   0.00000   0.00001
 108  Co    pz      -0.00000  -0.00001   0.00002  -0.00000  -0.00001  -0.00001
 109  Co    px       0.00009  -0.00011  -0.00080   0.00041  -0.00053   0.00027
 110  Co    py       0.00030   0.00041   0.00016  -0.00071  -0.00010  -0.00021
 111  Co    pz      -0.00001  -0.00040  -0.00102   0.00029   0.00011   0.00032
 112  Co    px       0.00032  -0.00002   0.00064  -0.00070   0.00024  -0.00036
 113  Co    py      -0.00012  -0.00012   0.00012   0.00044   0.00005   0.00019
 114  Co    pz       0.00006   0.00016   0.00040   0.00036   0.00007   0.00027
 115  Co    d 1     -0.00000   0.00000  -0.00000  -0.00000   0.00000  -0.00000
 116  Co    d 2     -0.00000   0.00000  -0.00001   0.00000  -0.00000  -0.00000
 117  Co    d 3      0.00000  -0.00000  -0.00001   0.00000  -0.00000   0.00000
 118  Co    d 4      0.00000   0.00000   0.00001  -0.00000   0.00000  -0.00001
 119  Co    d 5      0.00000   0.00000   0.00001  -0.00000   0.00000   0.00000
 120  Co    d 1      0.00002   0.00000   0.00002  -0.00000  -0.00002   0.00000
 121  Co    d 2      0.00001  -0.00004   0.00004  -0.00001   0.00000   0.00000
 122  Co    d 3     -0.00001   0.00003   0.00005  -0.00001   0.00003  -0.00000
 123  Co    d 4     -0.00003  -0.00001  -0.00003   0.00003  -0.00003   0.00005
 124  Co    d 5     -0.00000  -0.00002  -0.00007   0.00001  -0.00004  -0.00000
 125  H 17  s       -0.00001  -0.00003  -0.00001   0.00001   0.00001  -0.00001
 126  H 17  s        0.00014   0.00019   0.00045  -0.00034  -0.00010  -0.00009
 127  P 3   s       -0.00000  -0.00001   0.00005  -0.00006   0.00001  -0.00001
 128  P 3   s       -0.00005  -0.00001   0.00197  -0.00193  -0.00019   0.00011
 129  P 3   px       0.00002   0.00003   0.00019  -0.00015   0.00009  -0.00000
 130  P 3   py       0.00000   0.00001   0.00005   0.00025  -0.00002  -0.00001
 131  P 3   pz       0.00002  -0.00000   0.00026   0.00007  -0.00002   0.00008
 132  P 3   px      -0.00010  -0.00024  -0.00011  -0.00061  -0.00081   0.00020
 133  P 3   py      -0.00003  -0.00004   0.00005   0.00023   0.00005   0.00004
 134  P 3   pz      -0.00010   0.00006   0.00061  -0.00011   0.00011  -0.00055
 135  H 18  s        0.00000  -0.00000  -0.00009   0.00003   0.00008   0.00001
 136  H 18  s        0.00003   0.00004  -0.00039  -0.00011   0.00040  -0.00006
 137  C 7   s        0.00000  -0.00000   0.00007   0.00001  -0.00005  -0.00000
 138  C 7   s        0.00001  -0.00000   0.00025   0.00002  -0.00018   0.00000
 139  C 7   px      -0.00000  -0.00000  -0.00021   0.00000   0.00001   0.00000
 140  C 7   py      -0.00000   0.00000  -0.00009   0.00001   0.00004   0.00001
 141  C 7   pz       0.00000   0.00000  -0.00028  -0.00001   0.00011   0.00001
 142  C 7   s        0.00002   0.00009  -0.01126   0.00001   0.00320  -0.00024
 143  C 7   px       0.00004   0.00006  -0.00507   0.00004   0.00197  -0.00009
 144  C 7   py       0.00001  -0.00003  -0.00053   0.00011   0.00009  -0.00000
 145  C 7   pz      -0.00000  -0.00007  -0.00173   0.00032   0.00034   0.00010
 146  C 8   s        0.00000   0.00000   0.00293  -0.00000   0.00011  -0.00000
 147  C 8   s        0.00001   0.00000  -0.00252  -0.00000   0.00053  -0.00001
 148  C 8   px       0.00000   0.00000  -0.00100  -0.00000  -0.00017  -0.00000
 149  C 8   py      -0.00000  -0.00000   0.00002   0.00000  -0.00007   0.00000
 150  C 8   pz      -0.00000  -0.00000   0.00004  -0.00000  -0.00021  -0.00000
 151  C 8   s       -0.00005  -0.00000   0.02004  -0.00013  -0.00811   0.00011
 152  C 8   px      -0.00001  -0.00004   0.00822   0.00015  -0.00351   0.00008
 153  C 8   py       0.00001   0.00001  -0.00314   0.00004   0.00085   0.00000
 154  C 8   pz       0.00002   0.00000  -0.00863   0.00015   0.00233  -0.00001
 155  H 19  s        0.00000   0.00000   0.00033   0.00001  -0.00012   0.00001
 156  H 19  s       -0.00001  -0.00002   0.00319  -0.00004  -0.00104  -0.00001
 157  C 9   s        0.00008   0.00013   0.99529   0.00004  -0.00013   0.00000
 158  C 9   s        0.00001   0.00001   0.03644  -0.00001   0.00016   0.00000
 159  C 9   px      -0.00000  -0.00000   0.00021   0.00000   0.00047   0.00000
 160  C 9   py      -0.00000  -0.00000   0.00006  -0.00000   0.00002   0.00000
 161  C 9   pz       0.00000   0.00000   0.00018  -0.00000   0.00009  -0.00000
 162  C 9   s       -0.00001  -0.00001  -0.03920   0.00014   0.00129  -0.00002
 163  C 9   px      -0.00002  -0.00002   0.00493   0.00014  -0.00798   0.00010
 164  C 9   py      -0.00001   0.00000   0.00578  -0.00005  -0.00049  -0.00001
 165  C 9   pz      -0.00002   0.00001   0.01654  -0.00016  -0.00179  -0.00002
 166  O 1   s       -0.00000   0.00000   0.00011  -0.00000  -0.00006   0.00000
 167  O 1   s       -0.00000   0.00000   0.00102  -0.00000  -0.00030   0.00000
 168  O 1   px       0.00000  -0.00000   0.00002   0.00000   0.00009   0.00000
 169  O 1   py       0.00000   0.00000   0.00008   0.00000   0.00007  -0.00000
 170  O 1   pz       0.00000   0.00000   0.00022  -0.00000   0.00021   0.00000
 171  O 1   s        0.00002  -0.00000  -0.00541   0.00003  -0.00014  -0.00001
 172  O 1   px      -0.00000   0.00000   0.00137  -0.00002   0.00076  -0.00001
 173  O 1   py      -0.00000   0.00000   0.00093  -0.00000  -0.00052   0.00000
 174  O 1   pz      -0.00001  -0.00000   0.00270   0.00000  -0.00142   0.00000
 175  C 10  s        0.00000  -0.00000   0.00324   0.00000  -0.00001  -0.00000
 176  C 10  s        0.00001  -0.00001  -0.00273   0.00001  -0.00015  -0.00000
 177  C 10  px       0.00000   0.00000   0.00073  -0.00000   0.00010  -0.00000
 178  C 10  py      -0.00000  -0.00000  -0.00019   0.00000   0.00009   0.00000
 179  C 10  pz      -0.00000  -0.00000  -0.00051   0.00001   0.00026   0.00000
 180  C 10  s       -0.00002   0.00004   0.02374  -0.00023   0.00351   0.00003
 181  C 10  px      -0.00001  -0.00003  -0.01360   0.00022   0.00007   0.00003
 182  C 10  py       0.00001   0.00000   0.00079  -0.00005   0.00034  -0.00004
 183  C 10  pz       0.00002   0.00000   0.00161  -0.00013   0.00100  -0.00010
 184  H 20  s        0.00000   0.00000   0.00034  -0.00001  -0.00017  -0.00000
 185  H 20  s        0.00000   0.00001   0.00321  -0.00007  -0.00051  -0.00001
 186  C 11  s        0.00000   0.00000   0.00012  -0.00002   0.00015  -0.00000
 187  C 11  s        0.00001   0.00000   0.00038  -0.00005   0.00037  -0.00001
 188  C 11  px      -0.00000   0.00000  -0.00015   0.00003  -0.00006  -0.00000
 189  C 11  py       0.00000   0.00000  -0.00011   0.00000   0.00004  -0.00000
 190  C 11  pz       0.00000   0.00000  -0.00033  -0.00002   0.00012  -0.00000
 191  C 11  s       -0.00002  -0.00010  -0.01229   0.00035  -0.00088   0.00022
 192  C 11  px       0.00004   0.00003   0.00332  -0.00042   0.00052  -0.00022
 193  C 11  py       0.00000   0.00000  -0.00179   0.00007  -0.00034  -0.00003
 194  C 11  pz      -0.00000  -0.00000  -0.00492   0.00017  -0.00094  -0.00008
 195  H 21  s        0.00001   0.00000  -0.00009  -0.00001  -0.00007  -0.00002
 196  H 21  s       -0.00005   0.00001  -0.00092   0.00031  -0.00043   0.00006
 197  C 12  s       -0.00000  -0.00000  -0.00021  -0.00004   0.00002   0.00001
 198  C 12  s       -0.00001  -0.00001  -0.00062  -0.00011   0.00006   0.00001
 199  C 12  px      -0.00000  -0.00001  -0.00011   0.00002   0.00008   0.00003
 200  C 12  py       0.00000   0.00000  -0.00006   0.00003   0.00000  -0.00003
 201  C 12  pz       0.00001   0.00001  -0.00020  -0.00000   0.00002  -0.00002
 202  C 12  s        0.00007   0.00001   0.00831   0.00039  -0.00069   0.00007
 203  C 12  px       0.00002   0.00012   0.00299  -0.00055   0.00031  -0.00043
 204  C 12  py      -0.00003  -0.00003   0.00151  -0.00015  -0.00025   0.00009
 205  C 12  pz      -0.00007  -0.00010   0.00457  -0.00026  -0.00073   0.00011
 206  C 13  s        0.00000   0.00000   0.00000  -0.00306   0.00000  -0.00011
 207  C 13  s        0.00001   0.00000  -0.00000   0.00249   0.00000  -0.00052
 208  C 13  px      -0.00000  -0.00000  -0.00000   0.00015  -0.00000   0.00013
 209  C 13  py       0.00000   0.00000   0.00000  -0.00003  -0.00000  -0.00021
 210  C 13  pz       0.00000   0.00000   0.00000  -0.00098  -0.00000  -0.00013
 211  C 13  s        0.00002   0.00000   0.00022  -0.01977  -0.00002   0.00799
 212  C 13  px       0.00001   0.00001  -0.00002   0.00272  -0.00001  -0.00053
 213  C 13  py      -0.00000   0.00001   0.00008  -0.00734   0.00002   0.00190
 214  C 13  pz      -0.00004  -0.00000  -0.00017   0.00958   0.00008  -0.00373
 215  C 14  s        0.00001  -0.00000   0.00001  -0.00007   0.00000   0.00005
 216  C 14  s        0.00002   0.00000   0.00002  -0.00024  -0.00000   0.00018
 217  C 14  px      -0.00000   0.00000   0.00001   0.00020   0.00000  -0.00005
 218  C 14  py      -0.00000  -0.00000   0.00001  -0.00029   0.00000   0.00011
 219  C 14  pz      -0.00001  -0.00000  -0.00003  -0.00015   0.00000   0.00000
 220  C 14  s       -0.00007   0.00003  -0.00007   0.01125   0.00020  -0.00310
 221  C 14  px       0.00000  -0.00002  -0.00007   0.00138  -0.00007  -0.00046
 222  C 14  py      -0.00002   0.00001   0.00003  -0.00149   0.00012   0.00040
 223  C 14  pz       0.00009   0.00002   0.00038  -0.00506  -0.00013   0.00170
 224  C 15  s        0.00000  -0.00001   0.00003   0.00022  -0.00000  -0.00003
 225  C 15  s        0.00000  -0.00003   0.00005   0.00060  -0.00002  -0.00006
 226  C 15  px       0.00000   0.00000   0.00002   0.00012   0.00001  -0.00001
 227  C 15  py       0.00000  -0.00000   0.00003  -0.00020  -0.00001   0.00001
 228  C 15  pz      -0.00000   0.00000   0.00003  -0.00004   0.00003   0.00007
 229  C 15  s        0.00008   0.00016  -0.00006  -0.00837   0.00018   0.00055
 230  C 15  px       0.00003  -0.00001   0.00010  -0.00270  -0.00009   0.00019
[...]
   353   -5.546481798972e-02
   354    1.362960596253e-03
   355    9.037791915551e-03
   356   -9.064723620303e-03
   357   -2.267281631299e-03
   358    3.885222403852e-03
   359   -1.321824623622e-01
   360   -3.054036538545e-02
   361   -9.300562629756e-03
   362   -6.460008422518e-02
   363    2.268626526794e-03
   364   -1.228557640108e-02
   365    3.169710673879e-04
   366    8.621796846021e-03
   367   -1.879018010052e-04
   368    4.116263832764e-03
   369    4.622605978510e-03
   370   -5.954788212697e-03
   371   -1.901807183167e-03
   372    1.129966676903e-01
   373   -2.656982758136e-02
   374   -4.267016992384e-02
   375   -4.806751438929e-02
   376   -3.917922428311e-03
   377   -1.723783072160e-02
   378   -3.334403866991e-04
   379   -2.364911579075e-03
   380    3.675069138307e-04
   381   -9.844643677749e-04
   382   -1.059777707981e-03
   383    3.384341991065e-02
   384    1.008279004744e-02
   385    8.726513239145e-04
   386    2.084532886765e-02
   387    6.789621175087e-04
   388    5.160524983817e-03
   389   -1.391478749098e-03
   390    5.998470805222e-04
   391   -6.635262558809e-04
   392   -4.253508034550e-02
   393    2.063560132356e-02
   394    2.152692037396e-02
   395    2.521199736909e-02
   396    4.075076392012e-05
   397    1.164117689197e-03
   398    5.150030782380e-04
   399    7.886334571747e-04
   400    6.408377081259e-04
   401    1.134432600463e-02
   402    2.121537734350e-02
   403    1.049170043626e-02
   404    6.948820393905e-03
   405    2.445531997973e-03
   406   -4.572208990121e-03
   407   -2.204552416894e-03
   408   -9.468620697101e-03
   409    2.489341740050e-05
   410   -2.790446418634e-04
   411    4.585737695397e-05
   412    1.625487399208e-04
   413    2.714190445934e-04
   414   -4.848176376139e-04
   415   -1.719480779373e-03
   416   -1.412521433866e-03
   417   -6.984441334818e-04
   418    1.948544910329e-03
   419    8.918987873502e-03
   420    1.184010011434e-03
   421    6.559398405833e-03
   422    3.023563930414e-03
   423   -9.846847372830e-02
   424   -1.380206361809e-02
   425   -3.796223047374e-02
   426   -1.012769493498e-01
   427   -4.837367142411e-05
   428   -4.550243168808e-04
   429    1.163628101328e-04
   430    4.295792774946e-04
   431   -3.180362269238e-04
   432    4.996976268174e-03
   433   -1.099472902797e-03
   434   -1.723979003444e-03
   435    2.893868507541e-03
   436    4.671351368546e-03
   437    2.785371607183e-02
   438    2.205725364989e-03
   439    4.301130134091e-04
   440   -2.074518742154e-03
   441   -1.916554053155e-01
   442    1.293391682506e-01
   443    1.023703946390e-02
   444    8.920026397645e-02
   445   -3.439265948787e-03
   446   -2.948908204071e-02
   447    1.479690841795e-02
   448    1.679133032083e-03
   449   -9.638276706341e-03
   450   -4.360424866321e-02
   451    1.187683138601e-02
   452    3.474152929150e-02
   453   -1.071507795996e-04
   454   -9.034578471473e-04
   455    2.644457236158e-04
   456   -3.742285901914e-04
   457    1.273908900977e-04
   458    2.719617395956e-03
   459   -1.967368709523e-03
   460    2.438232964225e-03
   461    6.866924062243e-04
   462    1.058545051881e-04
   463    1.007874190068e-03
   464    1.129236702154e-04
   465   -1.102632134648e-05
   466   -2.748023565417e-04
   467   -4.345779346796e-03
   468    1.002915898354e-03
   469    4.013226428071e-04
   470    1.157254425421e-03
   471    9.177775821256e-05
   472    9.172090999382e-04
   473   -2.039322447809e-05
   474   -1.651054714599e-05
   475    6.415399195700e-04
   476    1.023318934681e-04
   477    7.476443439110e-04
   478   -1.999037171449e-03
   479   -3.386082108777e-03
   480   -2.310676389693e-04
   481   -2.836860398751e-03
   482   -6.664229325268e-04
   483    9.747750047196e-04
   484    3.981521692790e-06
   485    5.962981332462e-03
   486    2.039521641924e-03
   487   -6.588650292131e-03
   488   -2.790473618021e-04
   489   -4.705746936897e-04
   490   -2.215121829114e-03
   491    3.883450613120e-04
   492    1.135237646343e-04
   493    5.153819907165e-04
   494   -2.435492357693e-04
   495    6.480426687309e-05
   496    1.381278997916e-03
   497   -6.334147485878e-04
   498    5.558760315390e-04
   499   -3.555227869282e-04
   500   -1.014395576456e-03
   501    9.259490837744e-05
   502   -9.325259543489e-05
   503    1.578920724311e-04
   504    1.072477486988e-03
   505    2.889147164325e-04
   506    8.551320885158e-04
   507    2.448182242527e-04
   508    3.068173107383e-03
   509   -3.723651529555e-05
   510   -5.237442923454e-03
   511   -1.253012325996e-03
   512    3.642387858853e-04
Sym=X
Ene= 0.002973
Spin=Alpha
Occup=0
     1    2.129266684160e-02
     2    1.420573021205e+00
     3    7.793610950046e-02
     4   -3.913145887290e-02
     5    8.902594055426e-02
     6   -8.321583646016e-01
     7   -1.574404123888e-01
     8    1.744769470570e+00
     9    2.217150698472e-03
    10   -8.345487418676e-02
    11   -3.111253180954e-03
    12    2.460239652634e-03
    13    4.816526742546e-03
    14   -1.486964464445e-01
    15   -7.108725045245e-02
    16    2.949249944086e-02
    17    5.779971311789e-02
    18    1.440887799387e+00
    19   -5.386245868462e-01
    20    3.635184000202e-01
    21   -5.573631719978e-01
    22   -3.431509269485e+00
    23    1.413844551443e+00
    24   -9.313283617495e-01
    25    1.330511157339e+00
    26    3.744279437056e-03
    27   -4.618513954822e-02
    28   -2.225745681844e-02
    29    5.755569524232e-02
    30   -1.385020994549e-02
    31   -3.568217804730e-01
    32    7.222044270754e-02
    33    1.810995149790e-01
    34    1.077128214858e-01
    35    1.054416623607e-03
    36    4.399230361700e-03
    37    5.088466032713e-03
    38    4.032047973290e-03
    39   -4.193616449088e-05
    40    1.546751558965e-02
    41   -2.069331766966e-02
    42   -1.219734511417e-02
    43   -5.635887549080e-02
    44   -2.967747422286e-04
    45    8.227830672718e-03
    46   -3.331310796630e-03
    47    2.768906561166e-03
    48    2.192634558681e-03
    49    3.939001862391e-03
    50    5.245286018945e-02
    51    4.330656022350e-04
    52   -2.760169270748e-02
    53    4.723914155061e-03
    54   -2.334180682699e-02
    55   -3.580691893553e-02
    56   -9.892494269759e-03
    57   -3.061328881669e-02
    58   -2.546220959268e-01
    59    9.075794133000e-02
    60   -3.130123889114e-01
    61   -1.809914557520e-01
    62    9.359843122447e-03
    63    4.567522459815e-02
    64    4.056515665187e-03
    65   -4.342472296965e-03
    66   -7.013020179408e-03
    67   -3.604489113384e-01
    68   -1.925571439985e-02
    69   -1.276753165009e-01
    70   -3.091119501787e-02
    71    1.135897790885e-02
    72   -1.731365026866e-02
    73    1.117591158163e-02
    74   -3.881152171236e-02
    75    3.138406187174e-02
    76    8.628086353650e-02
    77    2.428121684531e-02
    78    4.926223570901e-02
    79    7.162832137785e-03
    80   -1.453411902082e-03
    81   -8.207247894218e-04
    82   -2.137601061023e-02
    83   -2.707791756849e-03
    84   -4.962878055118e-02
    85    1.755080799375e-02
    86   -1.807748824757e-01
    87    2.681462223361e-01
    88    8.276452011332e-01
    89    6.119493662044e-02
    90    8.211551227675e-02
    91    2.943090575959e-02
    92    1.320061997233e-01
    93   -2.881242019107e-02
    94   -1.243458069488e-01
    95    5.595904590269e-03
    96   -3.728248131604e-02
    97   -1.115998031317e-04
    98   -5.069332139227e-02
    99    1.173044539189e-02
   100   -6.921925983085e-02
   101   -3.297630129144e-03
   102   -4.060153406800e-02
   103    3.058310669051e-01
   104    4.877048447982e-01
   105    5.603426267577e-01
   106   -2.023594536248e-02
   107    7.044608823463e-03
   108    2.599750345387e-02
   109   -3.300113266500e-01
   110    1.298483495409e-01
   111    7.939622946151e-02
   112   -4.153554253552e-02
   113    2.571920472640e-02
   114   -8.410191147246e-02
   115   -8.235893271736e-03
   116   -7.071000932717e-03
   117   -4.541930820636e-04
   118    8.843622715460e-03
   119   -6.604411573688e-03
   120   -5.634823863800e-02
   121   -2.215180760255e-02
   122    1.668404327999e-02
   123    3.683793141850e-02
   124   -6.179748796798e-02
   125   -9.342791537368e-03
   126   -1.143044435908e-01
   127   -1.495949942481e-02
   128   -2.777615251868e-02
   129    9.702065267285e-03
   130    4.768101134220e-03
   131    1.582907194398e-03
   132    1.419562756636e-01
   133   -3.097731725257e-02
   134    4.777742734034e-02
   135    4.530897229460e-03
   136   -1.940152092060e-01
   137   -1.076700527969e-03
   138    3.570951104939e-04
   139   -1.099841714125e-02
   140   -1.091893263342e-03
   141    6.231205551643e-03
   142    6.944667492028e-02
   143   -4.234350578236e-02
   144    5.763862589997e-03
   145   -4.034306568569e-02
   146   -8.203373723590e-04
   147   -7.607716621786e-03
   148    2.473650668939e-04
   149   -1.404815209579e-03
   150    7.444129114344e-05
   151    5.067868173385e-02
   152   -8.777123736648e-03
   153   -4.492800662060e-03
   154   -7.938180960474e-04
   155   -1.722157289428e-03
   156   -1.148841700358e-02
   157    2.910615561390e-05
   158    5.453836784273e-05
   159   -4.792198331310e-04
   160    5.132291222868e-04
   161   -1.022951897799e-03
   162    1.785208612728e-03
   163    1.045397607294e-02
   164   -1.342043688861e-03
   165    1.636429546880e-04
   166    3.168177887775e-05
   167   -1.723803450937e-06
   168    3.359435899968e-04
   169   -1.229139678923e-04
   170   -1.519907588126e-05
   171   -1.296059071245e-03
   172   -2.088457634844e-03
   173    1.076980914252e-03
   174    8.985536889668e-04
   175    8.125474068390e-05
   176   -2.856337253221e-03
   177    1.374112833434e-03
   178    6.491873588241e-04
   179    1.353909143690e-03
   180   -1.303256749376e-02
   181    2.424004643878e-03
   182   -9.006809166031e-04
   183   -2.229969891852e-03
   184   -2.379131713689e-04
   185    2.023856127018e-03
   186   -1.307670061203e-04
   187    2.480460380097e-03
   188   -2.386583760827e-03
   189    2.468833216133e-04
   190   -3.099298652432e-03
   191    2.580339037517e-02
   192   -1.027970339694e-02
   193    4.546779589783e-03
   194    1.454033857194e-02
   195   -2.822773842215e-04
   196    3.069925292688e-03
   197    2.128207090610e-03
   198    5.277142885295e-03
   199    3.533751083592e-03
   200    1.058537256175e-03
   201    1.367850767169e-03
   202   -8.788193305394e-02
   203   -1.791775395207e-02
   204    1.475339520724e-03
   205    3.229382925198e-02
   206    1.964314767799e-04
   207    6.968567052096e-04
   208   -4.629712948651e-04
   209   -5.200742456469e-04
   210   -5.301671653743e-04
   211   -1.011325946749e-02
   212   -1.968544497469e-03
   213   -4.518666627821e-03
   214    2.139071482594e-03
   215    4.108047423674e-04
   216    2.788219719793e-03
   217   -6.019405904656e-04
   218    5.922865544063e-04
   219    1.287060810403e-03
   220   -8.356313430543e-03
   221    1.890482380451e-02
   222   -1.387805408052e-03
   223    7.539082364617e-04
   224    6.336830239336e-04
   225   -1.794284718898e-03
   226    3.282228570862e-03
   227   -6.549318542042e-04
   228    2.033115895094e-04
   229   -9.757182141118e-03
   230   -1.645751731528e-02
   231   -3.957069687942e-02
   232   -3.040343522676e-02
   233    8.678979655587e-04
   234    5.500892089448e-03
   235   -2.587573940596e-08
   236   -2.159460142960e-03
   237   -8.427468099627e-04
   238   -3.629284338915e-02
   239    1.098765646564e-02
   240    2.231812081131e-02
   241   -2.060004599709e-02
   242    2.089251027916e-05
   243    8.457317289263e-04
   244   -1.928952217214e-03
   245    1.355643780095e-04
   246    8.773253465357e-05
   247    1.488499817311e-02
   248   -2.316859476477e-03
   249   -5.976964603964e-04
   250    7.832445531223e-03
   251    9.007857093570e-04
   252   -5.243354581778e-04
   253    1.087717477433e-03
   254   -2.694254119367e-02
   255   -2.302918072204e-03
   256    3.003435761402e-03
   257   -6.909439910327e-04
   258    1.392205026261e-03
   259    4.321764103094e-05
   260    4.497294166254e-04
   261   -5.882459875997e-04
   262   -3.320786437256e-04
   263    1.216650443237e-04
   264   -3.564367572788e-03
   265    3.460965877227e-03
   266   -1.998630673131e-04
   267    4.768403200274e-03
   268    4.656135669947e-06
   269   -2.317915362675e-04
   270    1.944253901704e-05
   271   -5.660043123216e-05
   272    7.152521627707e-05
   273    1.845639826090e-04
   274   -7.500606201890e-04
   275   -9.644807278899e-05
   276   -6.790891632908e-04
   277    7.003381377779e-04
   278   -9.225792929184e-04
   279    4.187271541130e-03
   280   -5.764501362080e-03
   281    3.163343288588e-04
   282    3.004528754500e-03
   283    5.152702820098e-05
   284   -2.470921371973e-04
   285   -7.572269132987e-04
   286   -3.375187341772e-02
   287    2.266535432830e-03
   288    5.422669406736e-03
   289   -9.971794880879e-03
   290   -1.428777557889e-05
   291    3.317605571121e-03
   292   -4.783418437969e-04
   293   -2.474139702299e-03
   294    1.363911235224e-03
   295    3.621500214896e-02
   296    1.226250231066e-03
   297   -2.148168484050e-02
   298   -1.579943786658e-02
   299    1.083725001384e-04
   300    1.623742397389e-03
   301   -3.242952624658e-04
   302    9.515344335788e-05
   303    3.651437352121e-04
   304   -9.863847608039e-04
   305   -2.530406240084e-03
   306    8.473255826157e-03
   307    7.841094837207e-03
   308    2.044516840462e-04
   309    1.131568165649e-02
   310   -1.581942964123e-03
   311   -1.507652068357e-03
   312    1.173294967423e-04
   313   -1.581386589798e-02
   314    7.187898313475e-03
   315    5.410700022190e-03
   316    6.701488273357e-02
   317   -1.351578088180e-02
   318   -1.668804528775e-01
   319    2.400814322362e-02
   320   -4.576701889121e-03
   321   -2.830889122253e-02
   322   -1.041110635654e-02
   323    1.376043624878e-01
   324    9.206132633395e-02
   325    5.318605104597e-05
   326    1.523662832908e-03
   327    1.752221930510e-04
   328   -1.716602408513e-04
   329    1.024865851282e-03
   330    1.265597721831e-02
   331    5.278279538790e-04
   332   -5.263023667334e-03
   333   -3.387518824393e-05
   334    6.199487968960e-04
   335    7.965867563952e-03
   336   -9.775025261944e-05
   337   -2.600877081483e-03
   338   -4.076752721666e-03
   339   -1.335877993008e-02
   340   -6.712095662174e-03
   341    3.082767589512e-02
   342    6.580975885597e-03
   343    9.183412540077e-04
   344   -1.389630644511e-03
   345    8.823134876721e-05
   346    1.309339778125e-02
   347   -2.282680141196e-03
   348   -3.863692474740e-03
   349   -7.132199080377e-02
   350   -4.423745764977e-02
   351   -3.273604838994e-02
   352    8.401196180341e-03
   353   -4.775801702433e-02
   354    1.862853098988e-03
   355    1.538266235517e-02
   356   -3.114571978456e-03
   357   -1.502099431510e-03
   358    2.888265168738e-03
   359   -5.770350654415e-02
   360   -5.697685542747e-02
   361    2.444400082268e-02
   362   -4.405321735705e-02
   363    1.739474835383e-03
   364   -1.290905137975e-02
   365    3.398120387469e-03
   366   -7.035781770113e-04
   367    1.183796584078e-03
   368    1.484947143109e-02
   369    5.683503393242e-04
   370   -6.180835589675e-03
   371    3.184843929906e-03
   372    2.256749810530e-02
   373   -1.450193970922e-02
   374    1.795452250288e-02
   375   -2.949264879018e-02
   376   -3.837926690915e-03
   377    2.525555728502e-03
   378    9.997564782691e-04
   379    9.440456239508e-03
   380    7.071041783579e-06
   381   -1.995668302656e-03
   382    3.507808457953e-03
   383   -4.372078254367e-02
   384   -1.511819261811e-02
   385    2.364217157015e-02
   386    2.051861552303e-03
   387    6.811519773702e-04
   388    6.060288777768e-03
   389   -1.031460925890e-03
   390   -1.116313130387e-03
   391    8.829706755282e-04
   392   -4.137063406082e-02
   393   -1.564545821779e-03
   394    1.537923017068e-02
   395    1.424102650060e-02
   396    1.985633988411e-04
   397    3.207677565290e-03
   398   -6.181341899372e-05
   399   -2.216993496657e-03
   400    2.405898214158e-03
   401    1.528439515202e-03
   402    1.892028958806e-02
   403   -1.871510839870e-03
   404   -2.950415902123e-03
   405    1.960934029150e-03
   406   -4.073861412365e-03
   407   -3.414457266129e-04
   408   -4.614720002692e-03
   409   -9.520810842937e-05
   410   -8.076412283895e-04
   411   -9.160694317021e-05
   412    1.589385950466e-04
   413   -1.717864726447e-04
   414    6.270774851164e-03
   415    9.008076287974e-04
   416   -3.911325787860e-03
   417    1.535596854181e-03
   418   -1.140319237425e-03
   419   -1.718665935966e-02
   420    3.193240604524e-03
   421    3.507628385098e-03
   422   -2.674921095252e-03
   423    3.254284260519e-02
   424   -7.351127492902e-02
   425   -1.236355158869e-02
   426   -1.584472457402e-02
   427   -9.274832532080e-05
   428   -7.202512326264e-04
   429    5.098034450612e-05
   430    3.507762522159e-04
   431   -3.728243191017e-04
   432    5.374909272176e-03
   433   -3.120957011275e-04
   434   -1.755262393439e-03
   435    4.785303967888e-03
   436    9.420251241295e-04
   437    8.511080558462e-03
   438   -7.164304682228e-03
   439   -1.282204279199e-03
   440    1.288875927910e-03
   441   -4.091368101911e-02
   442    3.550213162721e-02
   443    3.754358026492e-02
   444   -1.439104833153e-02
   445    7.419019114379e-03
   446   -5.279769402246e-02
   447   -2.494897266398e-03
   448   -3.278284365381e-02
   449   -3.910771160285e-03
   450   -2.325897184103e-02
   451    7.484813410900e-03
   452    2.145043909938e-02
   453   -5.306591247944e-05
   454   -8.184437362986e-04
   455    2.657555948327e-04
   456   -2.540644296833e-04
   457   -1.193501366770e-04
   458    1.387077932475e-03
   459   -1.026366843157e-03
   460    1.311892134738e-03
   461   -8.369733667700e-05
   462    7.120673373145e-05
   463    6.433604307361e-04
   464   -2.199905972582e-04
   465   -3.802556164949e-05
   466   -5.540135655412e-05
   467   -7.551636138227e-04
   468   -2.089152399275e-04
   469    2.031169496494e-04
   470    1.306240354933e-03
   471   -5.490638001516e-05
   472   -2.147286745322e-04
   473    1.976574771769e-05
   474   -3.378695261137e-04
   475    3.236233158404e-04
   476    3.661204453640e-03
   477    1.526294134811e-04
   478   -8.670991624333e-04
   479   -7.399918560935e-05
   480   -8.662868900672e-05
   481   -1.162166735479e-03
   482   -2.219790602303e-04
   483    2.106524551079e-04
   484   -2.545697943776e-04
   485    3.798785689224e-03
   486    6.099930610705e-04
   487   -2.354179301178e-04
   488    2.054630086061e-04
   489   -2.891952861243e-04
   490   -7.695420262996e-04
   491    1.645703666689e-05
   492   -9.711276227520e-04
   493   -6.712296026643e-06
   494   -8.703767682852e-04
   495    4.442610457162e-05
   496    7.996642729013e-04
   497   -2.149229736376e-04
   498   -1.120186011098e-04
   499   -7.166987021222e-05
   500   -8.060830824161e-04
   501   -1.971456078509e-04
   502   -5.341097594566e-04
   503    9.433867678445e-05
   504    6.446389455993e-04
   505   -5.417677259334e-08
   506    4.731604823293e-04
   507   -3.005547558676e-04
   508   -1.296912233069e-04
   509    1.407635134111e-05
   510   -1.282514029619e-03
   511   -1.729227883381e-04
   512   -1.325669584841e-03
[5D]


======= END OF MOLDEN-FORMATTED INPUT FILE =======


        *************************************************************
        *                                                           *
        *  Thank you very much for using Q-Chem.  Have a nice day.  *
        *                                                           *
        *************************************************************


0 sent ACK to 0 
now end server 0 ... 
