Process 0 of 2 is on gollum291.lsa.umich.edu - thread support 0
initial socket setup ...start
initial socket setup ...done 
Process 1 of 2 is on gollum291.lsa.umich.edu - thread support 0
now start server 0 ... 
 Q-Chem 4.3.0 for Intel X86 EM64T Linux

 Parts of Q-Chem use Armadillo 5.200.1 (Boston Tea Smuggler).
 http://arma.sourceforge.net/

 Q-Chem begins on Tue Jan 16 16:55:18 2018  

Host: gollum291.lsa.umich.edu
0

     Scratch files written to /tmp/1349882.scr/qchem20368.0//
 Parallel job on  2  processors

Checking the input file for inconsistencies... 	...done.

--------------------------------------------------------------
User input:
--------------------------------------------------------------
$rem
correlation    NONE
EXCHANGE B3LYP
basis laNL2DZ
ECP LANL2DZ
unrestricted   false

jobtype sp
nbo 1

scf_algorithm rca_diis
scf_max_cycles 250

symmetry off
sym_ignore true

print_orbitals 10
molden_format true
$end

$molecule
0 1
  P     -0.48300668      3.29478457     -0.17686136
 Co      0.55063923      3.96862561     -2.01978086
  C      0.48885456      2.26965347      1.10463530
  C     -1.36730104      4.48414268      1.01201498
  C     -2.36922013      3.20667242     -4.03554864
  P     -0.79461437      2.55500092     -3.18763209
  C     -0.22027408      1.32593782     -4.51971758
  C     -1.91049504      2.08026076     -0.61564016
  C     -1.56507742      1.33713367     -1.91220364
  H     -0.80137250      0.57244034     -1.72577236
  H     -2.44164019      0.83958868     -2.34644905
  H     -2.81528592      2.68634746     -0.74706686
  H     -2.09107628      1.38509968      0.21363135
  H     -1.03493794      0.66274586     -4.82871026
  H      0.60384047      0.72745690     -4.12330856
  H      0.13963589      1.88056168     -5.39135715
  H      0.93359811      1.41123185      0.59460864
  H     -0.15075332      1.92147767      1.92393681
  H      1.29579265      2.88649473      1.50993175
  H     -2.13496307      5.03211267      0.45927401
  H     -0.63657606      5.20325880      1.39188794
  H     -1.82501717      3.95079451      1.85261571
  C      0.03303455      6.11095454     -5.00732834
  P      0.61699096      5.87428969     -3.20449072
  C      0.07329127      7.55745179     -2.50605935
  H     -1.01983790      7.59655713     -2.48354190
  H      0.45327336      8.39087277     -3.10858743
  H      0.44351751      7.64318953     -1.48132856
  C      2.50944716      6.20831123     -3.40911623
  H      2.67194792      6.95581995     -4.19605915
  H      2.83930056      6.64119100     -2.45729883
  C      3.27465345      4.91259710     -3.70452333
  H      3.08147207      4.58118676     -4.73349681
  H      4.35778864      5.05674625     -3.59949259
  P      2.69519077      3.46034433     -2.55763335
  C      3.44948991      2.00717876     -3.54227965
  H      2.89257120      1.86932375     -4.47285465
  H      4.50460131      2.18847616     -3.77763645
  H      3.37108616      1.09164483     -2.94840357
  C      4.00325450      3.56820905     -1.18071805
  H      3.84355636      4.49612785     -0.62641561
  H      3.86935512      2.72868503     -0.49252794
  H      5.02159413      3.54706011     -1.58530915
  H      0.39706832      7.05616299     -5.42580719
  H     -1.06025349      6.11109656     -5.03451177
  H      0.39830295      5.28223465     -5.62099613
  H     -2.09625099      3.80440445     -4.90978221
  H     -2.90749921      3.84651876     -3.33138596
  H     -3.01780288      2.38218946     -4.35225105
  H      1.27557375      4.88700704     -1.04641131
$end


--------------------------------------------------------------
 ----------------------------------------------------------------
             Standard Nuclear Orientation (Angstroms)
    I     Atom           X                Y                Z
 ----------------------------------------------------------------
    1      P      -0.4830066800     3.2947845700    -0.1768613600
    2      Co      0.5506392300     3.9686256100    -2.0197808600
    3      C       0.4888545600     2.2696534700     1.1046353000
    4      C      -1.3673010400     4.4841426800     1.0120149800
    5      C      -2.3692201300     3.2066724200    -4.0355486400
    6      P      -0.7946143700     2.5550009200    -3.1876320900
    7      C      -0.2202740800     1.3259378200    -4.5197175800
    8      C      -1.9104950400     2.0802607600    -0.6156401600
    9      C      -1.5650774200     1.3371336700    -1.9122036400
   10      H      -0.8013725000     0.5724403400    -1.7257723600
   11      H      -2.4416401900     0.8395886800    -2.3464490500
   12      H      -2.8152859200     2.6863474600    -0.7470668600
   13      H      -2.0910762800     1.3850996800     0.2136313500
   14      H      -1.0349379400     0.6627458600    -4.8287102600
   15      H       0.6038404700     0.7274569000    -4.1233085600
   16      H       0.1396358900     1.8805616800    -5.3913571500
   17      H       0.9335981100     1.4112318500     0.5946086400
   18      H      -0.1507533200     1.9214776700     1.9239368100
   19      H       1.2957926500     2.8864947300     1.5099317500
   20      H      -2.1349630700     5.0321126700     0.4592740100
   21      H      -0.6365760600     5.2032588000     1.3918879400
   22      H      -1.8250171700     3.9507945100     1.8526157100
   23      C       0.0330345500     6.1109545400    -5.0073283400
   24      P       0.6169909600     5.8742896900    -3.2044907200
   25      C       0.0732912700     7.5574517900    -2.5060593500
   26      H      -1.0198379000     7.5965571300    -2.4835419000
   27      H       0.4532733600     8.3908727700    -3.1085874300
   28      H       0.4435175100     7.6431895300    -1.4813285600
   29      C       2.5094471600     6.2083112300    -3.4091162300
   30      H       2.6719479200     6.9558199500    -4.1960591500
   31      H       2.8393005600     6.6411910000    -2.4572988300
   32      C       3.2746534500     4.9125971000    -3.7045233300
   33      H       3.0814720700     4.5811867600    -4.7334968100
   34      H       4.3577886400     5.0567462500    -3.5994925900
   35      P       2.6951907700     3.4603443300    -2.5576333500
   36      C       3.4494899100     2.0071787600    -3.5422796500
   37      H       2.8925712000     1.8693237500    -4.4728546500
   38      H       4.5046013100     2.1884761600    -3.7776364500
   39      H       3.3710861600     1.0916448300    -2.9484035700
   40      C       4.0032545000     3.5682090500    -1.1807180500
   41      H       3.8435563600     4.4961278500    -0.6264156100
   42      H       3.8693551200     2.7286850300    -0.4925279400
   43      H       5.0215941300     3.5470601100    -1.5853091500
   44      H       0.3970683200     7.0561629900    -5.4258071900
   45      H      -1.0602534900     6.1110965600    -5.0345117700
   46      H       0.3983029500     5.2822346500    -5.6209961300
   47      H      -2.0962509900     3.8044044500    -4.9097822100
   48      H      -2.9074992100     3.8465187600    -3.3313859600
   49      H      -3.0178028800     2.3821894600    -4.3522510500
   50      H       1.2755737500     4.8870070400    -1.0464113100
 ----------------------------------------------------------------
 Nuclear Repulsion Energy =  1355.2469487966 hartrees
 There are       71 alpha and       71 beta electrons
 Requested basis set is LANL2DZ
 There are 126 shells and 228 basis functions

 Total QAlloc Memory Limit   2000 MB
 Mega-Array Size        61 MB
 MEM_STATIC part        62 MB
 A cutoff of  1.0D-09 yielded   5512 shell pairs
 There are     20071 function pairs (     20502 Cartesian)
 
 -------------------------------------------------------
 OpenMP Integral Computing Module                       
 Release: version 1.0, May 2013, Q-Chem Inc. Pittsburgh 
 -------------------------------------------------------
 Integral Job Info:
 Integral job number is                      11
 Integral operator is                         1
 short-range coefficients                     0
 long-range coefficients              100000000
 Omega coefficients                           0
 if combine SR and LR in K                    0
 Integral screening is                        0
 Integral computing path is                   2
 max size of driver memory is            800000
 size of driver memory is                593474
 size of scratch memory is             29522520
 max col of scratch BK array               1296
 max len of scratch array in speh3          155
 max len of scratch index in speh4           18
 max int batch size is                      520
 min int batch size is                       52
 fixed nKL is                                45
 max L of basis functions is                  2
 order of int derivative is                   0
 number of shells is                        126
 number of basis is                         230
 number of cartesian basis is               230
 number of contracted shell pairs          5512
 number of primitive shell pairs          15521
 maxK2 (contraction) of shell pair           36
 max number of K2 of shell pair               1
 max number of CS2 of shell pair            910
 max number of PS2 of shell pair           2376
 mem total for path MDJ                   39516
 -------------------------------------------------------
 Requested basis set is LANL2DZ
 Compound shells will be simplified
 There are 150 shells and 228 basis functions
 A cutoff of  1.0D-09 yielded   7917 shell pairs
 There are     20009 function pairs (     20440 Cartesian)
 Smallest overlap matrix eigenvalue = 3.56E-03

 Scale SEOQF with 1.000000e-01/1.000000e-02/1.000000e-02

 Standard Electronic Orientation quadrupole field applied
 Nucleus-field energy     =     0.0000000261 hartrees
 length of FILE_MO_COEFS: 0 
 Guess from superposition of atomic densities
 Warning:  Energy on first SCF cycle will be non-variational
  NBasis: 228 NBas6D: 230 NB2: 20071 NB2car: 20502 NOrb: 228 
 A restricted hybrid HF-DFT SCF calculation will be
 performed using Relaxed Constraint Minimization + Pulay DIIS
 Exchange:     0.2000 Hartree-Fock + 0.0800 Slater + 0.7200 B88
 Correlation:  0.1900 VWN1RPA + 0.8100 LYP
 Using SG-1 standard quadrature grid
 SCF converges when DIIS error is below 1.0E-05
 ---------------------------------------
  Cycle       Energy         DIIS Error
 ---------------------------------------
    1    -649.6108507158      5.32E-02
    2    -647.3424550560      1.22E-02
    3    -647.6381858763      4.03E-03
    4    -647.8571548066      4.54E-03
    5    -647.8801307097      2.73E-03
    6    -647.9072979808      1.61E-03
    7    -647.9602110614      2.56E-03
    8    -647.9710779106      1.01E-03
    9    -648.0008212446      1.94E-03
   10    -648.0165833804      2.62E-04 Done RCA. Switching to DIIS
   11    -648.0984715384      2.22E-04
   12    -648.0888696355      1.47E-03
   13    -648.0852167497      1.69E-03
   14    -648.0850517657      1.70E-03
   15    -648.0867832917      1.60E-03
   16    -648.0963862883      7.71E-04
   17    -648.0988253413      2.63E-04
   18    -648.0990961678      1.13E-04
   19    -648.0991458614      4.52E-05
   20    -648.0991529509      1.96E-05
   21    -648.0991545080      7.29E-07 Convergence criterion met
 ---------------------------------------
 SCF time:  CPU 376.82 s  wall 358.12 s
 SCF   energy in the final basis set = -648.0991545080
 Total energy in the final basis set = -648.0991545080
 
 --------------------------------------------------------------
 
                    Orbital Energies (a.u.)
 --------------------------------------------------------------
 
 Alpha MOs
 -- Occupied --
-10.183 -10.180 -10.176 -10.175 -10.173 -10.173 -10.168 -10.168
-10.164 -10.163 -10.163 -10.162  -3.637  -2.350  -2.327  -2.309
 -0.782  -0.773  -0.741  -0.736  -0.715  -0.710  -0.688  -0.679
 -0.678  -0.677  -0.622  -0.615  -0.554  -0.541  -0.516  -0.511
 -0.451  -0.443  -0.437  -0.431  -0.423  -0.419  -0.417  -0.412
 -0.409  -0.407  -0.404  -0.400  -0.399  -0.398  -0.394  -0.391
 -0.389  -0.387  -0.386  -0.383  -0.365  -0.358  -0.326  -0.324
 -0.318  -0.316  -0.310  -0.308  -0.302  -0.296  -0.292  -0.253
 -0.248  -0.244  -0.222  -0.186  -0.172  -0.137  -0.120
 -- Virtual --
  0.019   0.022   0.024   0.036   0.048   0.061   0.064   0.071
  0.083   0.099   0.108   0.111   0.112   0.113   0.116   0.119
  0.124   0.134   0.137   0.142   0.144   0.150   0.152   0.158
  0.162   0.165   0.166   0.171   0.175   0.178   0.180   0.181
  0.184   0.189   0.190   0.194   0.195   0.197   0.203   0.209
  0.219   0.220   0.226   0.227   0.230   0.238   0.247   0.251
  0.273   0.281   0.286   0.308   0.339   0.371   0.456   0.457
  0.480   0.493   0.504   0.508   0.520   0.525   0.530   0.542
  0.552   0.561   0.565   0.576   0.589   0.598   0.602   0.607
  0.617   0.624   0.630   0.637   0.640   0.657   0.665   0.673
  0.678   0.685   0.698   0.700   0.715   0.727   0.738   0.758
  0.760   0.769   0.782   0.806   0.807   0.813   0.827   0.841
  0.849   0.863   0.868   0.879   0.892   0.897   0.903   0.909
  0.916   0.927   0.931   0.938   0.942   0.944   0.956   0.961
  0.962   0.967   0.972   0.976   0.983   0.986   0.987   0.989
  0.992   0.998   1.003   1.003   1.015   1.023   1.029   1.034
  1.043   1.047   1.055   1.060   1.073   1.082   1.087   1.097
  1.111   1.117   1.118   1.156   1.177   1.186   1.220   1.236
  1.242   1.272   1.293   1.320   1.365   1.465   1.586   1.613
  7.283  16.423  16.534  17.269  17.746
 --------------------------------------------------------------
 

                        RESTRICTED (RHF) MOLECULAR ORBITAL COEFFICIENTS
                         1         2         3         4         5         6
 eigenvalues:        -10.183   -10.180   -10.176   -10.175   -10.173   -10.173
   1  P 1   s       -0.00031  -0.00015  -0.00009  -0.00004   0.00009  -0.00002
   2  P 1   s        0.00024   0.00604  -0.00077   0.00056  -0.00006   0.00002
   3  P 1   px       0.00003  -0.00045  -0.00001   0.00002  -0.00014   0.00006
   4  P 1   py       0.00049  -0.00046   0.00008  -0.00003  -0.00010  -0.00004
   5  P 1   pz       0.00032  -0.00053   0.00012   0.00001  -0.00019   0.00007
   6  P 1   px       0.00114  -0.00350   0.00063   0.00006   0.00021  -0.00060
   7  P 1   py      -0.00216  -0.00250  -0.00017   0.00011   0.00023   0.00014
   8  P 1   pz      -0.00086   0.00014   0.00007   0.00006   0.00085  -0.00011
   9  Co    s       -0.00031  -0.00031   0.00024   0.00028  -0.00010   0.00037
  10  Co    s       -0.00046  -0.00051   0.00026   0.00039  -0.00022   0.00049
  11  Co    s        0.00044   0.00093  -0.00212  -0.00222  -0.00049  -0.00184
  12  Co    px       0.00005   0.00001   0.00001   0.00006   0.00002   0.00005
  13  Co    py       0.00003   0.00002   0.00000   0.00002   0.00002   0.00004
  14  Co    pz      -0.00001  -0.00002  -0.00002  -0.00004   0.00002  -0.00004
  15  Co    px      -0.00036   0.00138  -0.00385  -0.00093  -0.00230  -0.00006
  16  Co    py       0.00035   0.00079  -0.00152  -0.00056  -0.00335  -0.00080
  17  Co    pz      -0.00077   0.00100  -0.00071  -0.00115  -0.00082   0.00056
  18  Co    px       0.00032   0.00085  -0.00007   0.00074   0.00131   0.00084
  19  Co    py       0.00106   0.00033   0.00061   0.00057   0.00017   0.00100
  20  Co    pz      -0.00050  -0.00070   0.00098  -0.00072   0.00019  -0.00014
  21  Co    d 1     -0.00000  -0.00000  -0.00002  -0.00001   0.00001   0.00002
  22  Co    d 2     -0.00001  -0.00005   0.00006   0.00000  -0.00002   0.00001
  23  Co    d 3     -0.00002  -0.00003   0.00001  -0.00002   0.00002  -0.00004
  24  Co    d 4      0.00003  -0.00002  -0.00000  -0.00001   0.00003  -0.00002
  25  Co    d 5      0.00000   0.00002  -0.00007  -0.00003   0.00005   0.00001
  26  Co    d 1     -0.00017  -0.00012   0.00017   0.00014   0.00000   0.00007
  27  Co    d 2      0.00013   0.00035  -0.00038  -0.00015   0.00013  -0.00015
  28  Co    d 3      0.00018   0.00024  -0.00010   0.00013  -0.00008   0.00013
  29  Co    d 4     -0.00014   0.00016   0.00004  -0.00015  -0.00024   0.00003
  30  Co    d 5      0.00006  -0.00020   0.00040   0.00028  -0.00033  -0.00002
  31  C 1   s        0.00034  -0.00076  -0.00009   0.00003  -0.00003  -0.00006
  32  C 1   s        0.00032  -0.00033  -0.00004   0.00003  -0.00000  -0.00004
  33  C 1   px      -0.00008   0.00021  -0.00001  -0.00001  -0.00000  -0.00000
  34  C 1   py      -0.00001   0.00004  -0.00003  -0.00002   0.00003  -0.00002
  35  C 1   pz      -0.00009   0.00014   0.00005   0.00005  -0.00001   0.00002
  36  C 1   s       -0.00103  -0.00010  -0.00008  -0.00043   0.00002   0.00005
  37  C 1   px       0.00033  -0.00011   0.00004  -0.00001   0.00012  -0.00003
  38  C 1   py       0.00020  -0.00048   0.00011   0.00012  -0.00028   0.00023
  39  C 1   pz       0.00070   0.00002  -0.00013  -0.00030   0.00007  -0.00022
  40  C 2   s       -0.00047  -0.00044  -0.00016   0.00009  -0.00006   0.00007
  41  C 2   s       -0.00050  -0.00008  -0.00012   0.00005   0.00002   0.00004
  42  C 2   px      -0.00001   0.00001   0.00002  -0.00003  -0.00002  -0.00002
  43  C 2   py       0.00009   0.00010   0.00001  -0.00000  -0.00003   0.00000
  44  C 2   pz       0.00010   0.00010  -0.00001   0.00005   0.00006   0.00001
  45  C 2   s        0.00165  -0.00082   0.00070  -0.00054  -0.00042  -0.00029
  46  C 2   px       0.00021  -0.00020  -0.00008   0.00016   0.00002   0.00019
  47  C 2   py      -0.00063   0.00051  -0.00009  -0.00006   0.00023   0.00001
  48  C 2   pz      -0.00092   0.00013  -0.00009  -0.00026  -0.00023   0.00004
  49  C 3   s       -0.00135   0.00075  -0.00561   0.00033   0.99214  -0.07934
  50  C 3   s       -0.00045   0.00028  -0.00070   0.00003   0.03736  -0.00285
  51  C 3   px      -0.00003   0.00004  -0.00020   0.00001   0.00013   0.00001
  52  C 3   py       0.00019  -0.00006   0.00017   0.00002  -0.00011   0.00003
  53  C 3   pz      -0.00024   0.00009   0.00006   0.00000   0.00004  -0.00000
  54  C 3   s        0.00026  -0.00073   0.00056  -0.00008  -0.03187   0.00189
  55  C 3   px      -0.00063  -0.00019   0.00011   0.00005  -0.00081  -0.00000
  56  C 3   py      -0.00020   0.00019  -0.00009  -0.00014   0.00069  -0.00012
  57  C 3   pz       0.00058  -0.00079  -0.00028   0.00005  -0.00035   0.00003
  58  P 2   s       -0.00015  -0.00032  -0.00017  -0.00002  -0.00024   0.00006
  59  P 2   s        0.00567   0.00035   0.00459  -0.00026   0.00402  -0.00001
  60  P 2   px      -0.00018   0.00036   0.00019  -0.00013  -0.00009   0.00006
  61  P 2   py      -0.00031  -0.00003  -0.00010  -0.00008   0.00039  -0.00001
  62  P 2   pz       0.00080  -0.00055   0.00006   0.00006  -0.00017   0.00006
  63  P 2   px      -0.00182  -0.00152   0.00085   0.00030  -0.00483   0.00006
  64  P 2   py      -0.00316   0.00153  -0.00424   0.00002   0.00014  -0.00003
  65  P 2   pz       0.00152   0.00168  -0.00431  -0.00035  -0.00264  -0.00018
  66  C 4   s       -0.00110  -0.00231   0.99531  -0.00168   0.00551  -0.00089
  67  C 4   s       -0.00020  -0.00062   0.03752  -0.00000  -0.00026   0.00006
  68  C 4   px       0.00004   0.00003  -0.00010   0.00002   0.00020  -0.00000
  69  C 4   py       0.00000  -0.00005   0.00010   0.00002  -0.00020   0.00002
  70  C 4   pz      -0.00015  -0.00014   0.00010  -0.00000  -0.00002  -0.00000
  71  C 4   s       -0.00047   0.00188  -0.03228  -0.00012   0.00012  -0.00036
  72  C 4   px       0.00039  -0.00017   0.00067  -0.00013  -0.00016  -0.00000
  73  C 4   py      -0.00046   0.00053  -0.00070  -0.00017   0.00029  -0.00003
  74  C 4   pz      -0.00022   0.00109  -0.00088   0.00003  -0.00045   0.00011
  75  C 5   s        0.01603   0.99533   0.00223  -0.00001  -0.00066  -0.00007
  76  C 5   s       -0.00071   0.03826  -0.00045  -0.00000   0.00031   0.00001
  77  C 5   px      -0.00017   0.00009  -0.00001  -0.00002   0.00007  -0.00002
  78  C 5   py       0.00019   0.00023  -0.00010  -0.00001   0.00007  -0.00000
  79  C 5   pz       0.00045   0.00001   0.00013   0.00003  -0.00002   0.00002
  80  C 5   s        0.00782  -0.03577   0.00182  -0.00019  -0.00139  -0.00023
  81  C 5   px       0.00107  -0.00121   0.00027   0.00018  -0.00023   0.00013
  82  C 5   py      -0.00170  -0.00008   0.00056   0.00007  -0.00000  -0.00013
  83  C 5   pz      -0.00439   0.00194  -0.00120  -0.00012   0.00098  -0.00019
  84  C 6   s        0.99532  -0.01609   0.00107   0.00007   0.00132  -0.00017
  85  C 6   s        0.03813  -0.00194  -0.00009  -0.00004  -0.00043   0.00007
  86  C 6   px       0.00022   0.00008  -0.00003  -0.00001   0.00010  -0.00003
  87  C 6   py       0.00010  -0.00033   0.00008  -0.00003  -0.00025  -0.00001
  88  C 6   pz      -0.00021  -0.00041   0.00018  -0.00001   0.00012  -0.00002
  89  C 6   s       -0.03499   0.00905  -0.00083   0.00006   0.00066  -0.00039
  90  C 6   px      -0.00043  -0.00062  -0.00015   0.00003  -0.00050   0.00014
  91  C 6   py      -0.00168   0.00257  -0.00091   0.00032   0.00093   0.00020
  92  C 6   pz      -0.00101   0.00424  -0.00047  -0.00001   0.00080  -0.00001
  93  H 1   s       -0.00036  -0.00036  -0.00008  -0.00007  -0.00007  -0.00008
  94  H 1   s        0.00608   0.00020  -0.00015   0.00049   0.00082   0.00053
  95  H 2   s       -0.00039  -0.00028   0.00002  -0.00003  -0.00007  -0.00001
  96  H 2   s        0.00555   0.00053  -0.00067   0.00029  -0.00011   0.00040
  97  H 3   s       -0.00038  -0.00033  -0.00020  -0.00006   0.00011  -0.00005
  98  H 3   s        0.00032   0.00614  -0.00017   0.00043   0.00008   0.00043
  99  H 4   s       -0.00030  -0.00038   0.00000  -0.00002  -0.00002  -0.00003
 100  H 4   s        0.00088   0.00553   0.00051   0.00036  -0.00013   0.00031
 101  H 5   s        0.00002  -0.00015  -0.00050  -0.00002  -0.00004  -0.00001
 102  H 5   s       -0.00025   0.00032   0.00574  -0.00001  -0.00043   0.00021
 103  H 6   s        0.00005  -0.00016  -0.00066   0.00003  -0.00009  -0.00003
 104  H 6   s       -0.00062  -0.00001   0.00592  -0.00000   0.00070   0.00025
 105  H 7   s       -0.00005  -0.00004  -0.00064   0.00004  -0.00007   0.00001
 106  H 7   s        0.00030   0.00017   0.00585   0.00004  -0.00054   0.00025
 107  H 8   s        0.00015  -0.00007  -0.00006  -0.00007   0.00004  -0.00008
 108  H 8   s        0.00011  -0.00026   0.00018   0.00043  -0.00034   0.00042
 109  H 9   s        0.00002   0.00005   0.00002   0.00001  -0.00000  -0.00001
 110  H 9   s        0.00013  -0.00064   0.00005   0.00035  -0.00006   0.00023
 111  H 10  s       -0.00005  -0.00007  -0.00000  -0.00008   0.00005  -0.00002
 112  H 10  s        0.00003   0.00065  -0.00004   0.00049  -0.00017   0.00012
 113  H 11  s       -0.00012   0.00006   0.00002  -0.00009  -0.00009  -0.00003
 114  H 11  s       -0.00005  -0.00042  -0.00029   0.00051   0.00027   0.00033
 115  H 12  s       -0.00006  -0.00009   0.00005  -0.00006  -0.00001   0.00000
 116  H 12  s        0.00030   0.00045  -0.00023   0.00043   0.00002   0.00000
 117  H 13  s       -0.00016   0.00003  -0.00002   0.00001   0.00003  -0.00000
 118  H 13  s        0.00041  -0.00003  -0.00014   0.00038   0.00025   0.00017
 119  C 7   s       -0.00008   0.00005  -0.00025  -0.00064  -0.00007   0.00278
 120  C 7   s       -0.00005   0.00005  -0.00012  -0.00025  -0.00008   0.00047
 121  C 7   px       0.00002   0.00001  -0.00003  -0.00009  -0.00003   0.00027
 122  C 7   py      -0.00000   0.00001   0.00001   0.00002  -0.00012   0.00000
 123  C 7   pz      -0.00001   0.00001   0.00002  -0.00007   0.00001   0.00011
 124  C 7   s        0.00026  -0.00017   0.00038   0.00063   0.00088  -0.00018
 125  C 7   px      -0.00017  -0.00008   0.00018   0.00065   0.00017  -0.00065
 126  C 7   py       0.00013   0.00004  -0.00012  -0.00031   0.00057   0.00008
 127  C 7   pz      -0.00006  -0.00020   0.00010   0.00037   0.00012   0.00056
 128  P 3   s       -0.00001   0.00003  -0.00001   0.00032  -0.00003   0.00012
 129  P 3   s       -0.00063  -0.00030   0.00059  -0.00001   0.00016  -0.00519
 130  P 3   px       0.00001   0.00000  -0.00007   0.00047   0.00003  -0.00089
 131  P 3   py       0.00012  -0.00000  -0.00008  -0.00033   0.00005   0.00019
 132  P 3   pz       0.00011   0.00013  -0.00003  -0.00018  -0.00008  -0.00004
 133  P 3   px       0.00003  -0.00028   0.00055  -0.00097  -0.00059  -0.00303
 134  P 3   py      -0.00050  -0.00025  -0.00009   0.00141  -0.00091  -0.00213
 135  P 3   pz      -0.00036  -0.00060   0.00049   0.00155   0.00090   0.00082
 136  C 8   s       -0.00012  -0.00006  -0.00009   0.00070   0.00005   0.00063
 137  C 8   s       -0.00014  -0.00006  -0.00006   0.00047  -0.00001   0.00008
 138  C 8   px      -0.00001  -0.00000  -0.00000   0.00011   0.00001   0.00012
 139  C 8   py      -0.00001  -0.00000   0.00000  -0.00007   0.00004  -0.00005
 140  C 8   pz      -0.00000  -0.00001   0.00002  -0.00004  -0.00003  -0.00002
 141  C 8   s        0.00082   0.00032   0.00024  -0.00151  -0.00004   0.00078
 142  C 8   px       0.00006   0.00010  -0.00007  -0.00065   0.00011   0.00005
 143  C 8   py      -0.00001  -0.00005  -0.00001   0.00075  -0.00028  -0.00056
 144  C 8   pz       0.00003   0.00010  -0.00010   0.00015  -0.00005  -0.00050
 145  H 14  s        0.00003  -0.00002   0.00000   0.00002  -0.00005   0.00003
 146  H 14  s       -0.00030   0.00005  -0.00010  -0.00027   0.00028  -0.00031
 147  H 15  s        0.00000   0.00001  -0.00001   0.00017   0.00001  -0.00002
 148  H 15  s       -0.00026  -0.00009  -0.00006  -0.00029   0.00017   0.00020
 149  H 16  s        0.00004   0.00001   0.00005   0.00010  -0.00004  -0.00006
 150  H 16  s       -0.00042  -0.00024  -0.00010   0.00015   0.00020   0.00058
 151  C 9   s       -0.00007  -0.00012  -0.00051  -0.03274  -0.07933  -0.99174
 152  C 9   s       -0.00004  -0.00004  -0.00009   0.00004  -0.00321  -0.03800
 153  C 9   px      -0.00000   0.00000   0.00001   0.00021   0.00005   0.00021
 154  C 9   py      -0.00003  -0.00003   0.00005  -0.00050   0.00001  -0.00001
 155  C 9   pz      -0.00001   0.00000  -0.00002  -0.00009  -0.00002  -0.00009
 156  C 9   s        0.00034   0.00028   0.00012  -0.00710   0.00359   0.03523
 157  C 9   px       0.00001  -0.00006   0.00006  -0.00229  -0.00024   0.00020
 158  C 9   py       0.00025   0.00022  -0.00035   0.00428  -0.00027  -0.00208
 159  C 9   pz       0.00016   0.00005   0.00004   0.00054   0.00005  -0.00001
 160  H 17  s        0.00002   0.00002   0.00001   0.00031   0.00002   0.00038
 161  H 17  s       -0.00026  -0.00028   0.00020  -0.00087  -0.00049  -0.00564
 162  H 18  s        0.00005   0.00007  -0.00001   0.00036   0.00004   0.00036
 163  H 18  s       -0.00051  -0.00045   0.00013  -0.00046  -0.00065  -0.00605
 164  C 10  s        0.00008  -0.00000  -0.00168  -0.99491   0.00294   0.03267
 165  C 10  s        0.00003   0.00000  -0.00016  -0.03806   0.00021   0.00256
 166  C 10  px      -0.00004  -0.00006   0.00003   0.00007  -0.00002  -0.00032
 167  C 10  py      -0.00000  -0.00001   0.00001   0.00024   0.00003   0.00042
 168  C 10  pz       0.00001  -0.00000  -0.00003   0.00002   0.00000   0.00014
 169  C 10  s        0.00013   0.00024   0.00019   0.03485  -0.00084  -0.00951
 170  C 10  px       0.00016   0.00037  -0.00002  -0.00156   0.00040   0.00305
 171  C 10  py       0.00004   0.00012  -0.00031   0.00078  -0.00040  -0.00396
 172  C 10  pz      -0.00014  -0.00001   0.00030   0.00064  -0.00012  -0.00077
 173  H 19  s        0.00004   0.00009  -0.00006   0.00035   0.00003   0.00033
 174  H 19  s       -0.00028  -0.00041   0.00045  -0.00606  -0.00007   0.00004
 175  H 20  s        0.00002  -0.00001  -0.00002   0.00040   0.00004   0.00027
 176  H 20  s       -0.00027  -0.00041   0.00016  -0.00561  -0.00023  -0.00055
 177  P 4   s        0.00001   0.00001  -0.00010   0.00017  -0.00001   0.00027
 178  P 4   s        0.00019  -0.00052   0.00112  -0.00523   0.00013   0.00036
 179  P 4   px      -0.00011   0.00007   0.00018   0.00005   0.00009  -0.00003
 180  P 4   py      -0.00000   0.00008   0.00002  -0.00069   0.00001   0.00061
 181  P 4   pz      -0.00001   0.00012  -0.00006   0.00046   0.00001   0.00001
 182  P 4   px       0.00034  -0.00028  -0.00170  -0.00216  -0.00083  -0.00026
 183  P 4   py      -0.00005  -0.00036   0.00010  -0.00229   0.00073  -0.00159
 184  P 4   pz       0.00022  -0.00065   0.00040   0.00226   0.00009  -0.00136
 185  C 11  s       -0.00002  -0.00002   0.00013   0.00132  -0.00030   0.00144
 186  C 11  s        0.00000  -0.00000   0.00000   0.00025  -0.00012   0.00048
 187  C 11  px       0.00004  -0.00001  -0.00010  -0.00006  -0.00001  -0.00005
 188  C 11  py       0.00000   0.00001  -0.00006   0.00014   0.00000   0.00010
 189  C 11  pz       0.00000   0.00000  -0.00001  -0.00001  -0.00001   0.00001
 190  C 11  s       -0.00018   0.00006   0.00034   0.00023   0.00069  -0.00145
 191  C 11  px      -0.00017   0.00016   0.00049   0.00014   0.00008   0.00053
 192  C 11  py      -0.00001  -0.00017   0.00047   0.00038   0.00009  -0.00079
 193  C 11  pz      -0.00006  -0.00004   0.00016   0.00048   0.00023  -0.00011
 194  H 21  s       -0.00003   0.00007   0.00002  -0.00007   0.00001   0.00012
 195  H 21  s        0.00002  -0.00031   0.00025   0.00080  -0.00004   0.00011
 196  H 22  s        0.00003   0.00001  -0.00010  -0.00000  -0.00001   0.00015
 197  H 22  s        0.00006  -0.00020  -0.00008   0.00013  -0.00019  -0.00037
 198  H 23  s       -0.00005   0.00001   0.00010   0.00005   0.00002   0.00000
 199  H 23  s        0.00020  -0.00019   0.00008  -0.00023  -0.00026  -0.00008
 200  C 12  s        0.00001  -0.00008  -0.00021   0.00095  -0.00027  -0.00062
 201  C 12  s        0.00003  -0.00008  -0.00016   0.00034  -0.00016  -0.00033
 202  C 12  px       0.00002  -0.00004   0.00008  -0.00002   0.00002   0.00008
 203  C 12  py      -0.00001  -0.00000  -0.00001   0.00015  -0.00000  -0.00007
 204  C 12  pz      -0.00001   0.00000   0.00002  -0.00023   0.00002   0.00010
 205  C 12  s       -0.00023   0.00066   0.00042  -0.00002   0.00074   0.00085
 206  C 12  px      -0.00002   0.00009  -0.00042  -0.00049  -0.00007  -0.00052
 207  C 12  py       0.00011   0.00008   0.00008  -0.00048  -0.00007   0.00050
 208  C 12  pz       0.00016  -0.00007  -0.00033   0.00001  -0.00008  -0.00049
 209  H 24  s        0.00004   0.00006  -0.00004   0.00005   0.00005  -0.00016
 210  H 24  s       -0.00026  -0.00044   0.00013   0.00043  -0.00031   0.00009
 211  H 25  s       -0.00005   0.00001  -0.00006   0.00002   0.00002  -0.00000
 212  H 25  s        0.00019  -0.00013   0.00028  -0.00045  -0.00030   0.00028
 213  H 26  s        0.00002  -0.00002  -0.00002  -0.00003   0.00000  -0.00002
 214  H 26  s        0.00003  -0.00023   0.00025   0.00082  -0.00020  -0.00001
 215  H 27  s       -0.00000   0.00002  -0.00002  -0.00004  -0.00012  -0.00001
 216  H 27  s       -0.00018  -0.00013   0.00004  -0.00001  -0.00022   0.00077
 217  H 28  s        0.00004   0.00001  -0.00007   0.00004   0.00011   0.00003
 218  H 28  s       -0.00043  -0.00011   0.00035   0.00019  -0.00046  -0.00061
 219  H 29  s        0.00003   0.00005   0.00003  -0.00017   0.00013   0.00006
 220  H 29  s       -0.00019  -0.00026  -0.00007   0.00020  -0.00010   0.00061
 221  H 30  s       -0.00005  -0.00004  -0.00007   0.00004  -0.00070   0.00006
 222  H 30  s        0.00074  -0.00022  -0.00036   0.00001   0.00602  -0.00019
 223  H 31  s       -0.00006   0.00016  -0.00010  -0.00006  -0.00066   0.00001
 224  H 31  s       -0.00062  -0.00011   0.00062   0.00039   0.00584  -0.00000
 225  H 32  s       -0.00000   0.00006  -0.00005  -0.00002  -0.00051   0.00005
 226  H 32  s       -0.00076  -0.00002  -0.00049   0.00006   0.00578  -0.00033
 227  H 33  s       -0.00005  -0.00014  -0.00009  -0.00020  -0.00011  -0.00000
 228  H 33  s        0.00047  -0.00030   0.00181   0.00158   0.00177   0.00067
                         7         8         9        10        11        12
 eigenvalues:        -10.168   -10.168   -10.164   -10.163   -10.163   -10.162
   1  P 1   s        0.00001  -0.00003  -0.00019  -0.00027  -0.00010   0.00005
   2  P 1   s       -0.00030   0.00028   0.00475   0.00424   0.00060  -0.00051
   3  P 1   px      -0.00003   0.00011  -0.00009   0.00043  -0.00014   0.00001
   4  P 1   py      -0.00018   0.00003   0.00020   0.00000  -0.00008   0.00012
   5  P 1   pz      -0.00007   0.00012  -0.00001   0.00016   0.00011  -0.00007
   6  P 1   px      -0.00018  -0.00053  -0.00322   0.00113   0.00066  -0.00032
   7  P 1   py       0.00080  -0.00009   0.00270  -0.00325   0.00048  -0.00063
   8  P 1   pz       0.00114  -0.00100   0.00379   0.00404  -0.00076   0.00075
   9  Co    s       -0.00015   0.00053   0.00029  -0.00006   0.00017   0.00018
  10  Co    s       -0.00017   0.00075   0.00039  -0.00015   0.00025   0.00026
  11  Co    s        0.00070  -0.00129   0.00015   0.00040   0.00098  -0.00124
  12  Co    px       0.00001   0.00002  -0.00001   0.00000   0.00001   0.00004
  13  Co    py       0.00002  -0.00001  -0.00001   0.00002  -0.00000  -0.00000
  14  Co    pz       0.00001  -0.00003  -0.00001  -0.00003   0.00001  -0.00001
  15  Co    px      -0.00095   0.00251  -0.00053  -0.00152   0.00143  -0.00235
  16  Co    py      -0.00287   0.00148  -0.00174   0.00009   0.00140  -0.00046
  17  Co    pz       0.00006   0.00069   0.00191   0.00284  -0.00169   0.00103
  18  Co    px       0.00014  -0.00094   0.00117  -0.00006   0.00041   0.00129
  19  Co    py       0.00088   0.00060  -0.00038   0.00106  -0.00140   0.00004
  20  Co    pz      -0.00121   0.00043  -0.00137  -0.00169  -0.00023   0.00087
  21  Co    d 1      0.00001  -0.00004  -0.00002   0.00001   0.00000  -0.00002
  22  Co    d 2      0.00004   0.00003   0.00003  -0.00003   0.00001   0.00003
  23  Co    d 3     -0.00006   0.00003   0.00002   0.00000  -0.00005   0.00002
  24  Co    d 4      0.00000  -0.00005  -0.00002   0.00002   0.00002  -0.00002
  25  Co    d 5     -0.00004  -0.00004   0.00005  -0.00004  -0.00003   0.00000
  26  Co    d 1     -0.00006   0.00023   0.00019  -0.00004   0.00001   0.00017
  27  Co    d 2     -0.00021  -0.00022  -0.00022   0.00026  -0.00010  -0.00022
  28  Co    d 3      0.00037  -0.00019  -0.00009  -0.00003   0.00032  -0.00012
  29  Co    d 4      0.00000   0.00025   0.00019  -0.00016  -0.00007   0.00016
  30  Co    d 5      0.00030   0.00027  -0.00029   0.00023   0.00018   0.00004
  31  C 1   s        0.00055  -0.00029  -0.01472   0.99520   0.00458  -0.00038
  32  C 1   s        0.00014  -0.00009  -0.00102   0.03741   0.00008   0.00004
  33  C 1   px       0.00000  -0.00001   0.00017  -0.00011   0.00002  -0.00005
  34  C 1   py       0.00003  -0.00002  -0.00021   0.00005   0.00001  -0.00002
  35  C 1   pz      -0.00001   0.00003  -0.00002  -0.00009   0.00001   0.00004
  36  C 1   s       -0.00062   0.00028   0.00088  -0.03180   0.00036  -0.00034
  37  C 1   px      -0.00007  -0.00009  -0.00006   0.00072  -0.00017   0.00036
  38  C 1   py      -0.00022   0.00029   0.00037  -0.00038  -0.00012   0.00006
  39  C 1   pz      -0.00012  -0.00018   0.00032   0.00068  -0.00006  -0.00006
  40  C 2   s        0.00053  -0.00059   0.99522   0.01468  -0.00020  -0.00011
  41  C 2   s        0.00015  -0.00013   0.03746   0.00008  -0.00000   0.00002
  42  C 2   px       0.00001  -0.00001   0.00007  -0.00019  -0.00001  -0.00001
  43  C 2   py      -0.00001   0.00001  -0.00016   0.00020   0.00001  -0.00001
  44  C 2   pz       0.00002  -0.00002  -0.00007  -0.00005   0.00001  -0.00001
  45  C 2   s       -0.00085   0.00064  -0.03209  -0.00012  -0.00012  -0.00009
  46  C 2   px      -0.00024   0.00016  -0.00050   0.00044   0.00006   0.00010
  47  C 2   py       0.00019  -0.00006   0.00092  -0.00004  -0.00024   0.00015
  48  C 2   pz       0.00000   0.00014   0.00066   0.00044  -0.00006   0.00003
  49  C 3   s       -0.00026   0.00038   0.00006   0.00002   0.00000  -0.00020
  50  C 3   s        0.00008  -0.00011  -0.00001  -0.00003  -0.00000   0.00013
  51  C 3   px       0.00003  -0.00004   0.00001   0.00003  -0.00000  -0.00000
  52  C 3   py      -0.00005  -0.00001  -0.00001   0.00002   0.00001  -0.00001
  53  C 3   pz      -0.00001  -0.00004  -0.00002  -0.00000   0.00000   0.00001
  54  C 3   s       -0.00046   0.00049  -0.00008   0.00042  -0.00003  -0.00085
  55  C 3   px      -0.00020   0.00028  -0.00008  -0.00017   0.00006  -0.00002
  56  C 3   py       0.00029  -0.00009   0.00002  -0.00014  -0.00011   0.00009
  57  C 3   pz       0.00010   0.00031   0.00007   0.00000  -0.00005   0.00004
  58  P 2   s        0.00008  -0.00006  -0.00002  -0.00001  -0.00004   0.00005
  59  P 2   s       -0.00067   0.00076  -0.00048   0.00043  -0.00004   0.00022
  60  P 2   px       0.00007  -0.00008  -0.00003  -0.00009  -0.00003   0.00009
  61  P 2   py       0.00008  -0.00007   0.00004  -0.00016  -0.00006   0.00004
  62  P 2   pz       0.00004  -0.00006  -0.00002   0.00010  -0.00005   0.00009
  63  P 2   px      -0.00074   0.00106  -0.00004   0.00059   0.00007  -0.00032
  64  P 2   py      -0.00054   0.00066   0.00037   0.00050   0.00033  -0.00039
  65  P 2   pz      -0.00049   0.00055  -0.00047   0.00021   0.00051  -0.00099
  66  C 4   s       -0.00024  -0.00013   0.00013   0.00009   0.00008  -0.00018
  67  C 4   s        0.00010   0.00002  -0.00010  -0.00004  -0.00008   0.00015
  68  C 4   px       0.00002   0.00011   0.00001  -0.00002   0.00002   0.00001
  69  C 4   py       0.00001  -0.00001   0.00003  -0.00003   0.00003   0.00003
  70  C 4   pz      -0.00001   0.00001   0.00001  -0.00000   0.00003   0.00000
  71  C 4   s       -0.00041   0.00015   0.00057   0.00020   0.00069  -0.00078
  72  C 4   px       0.00002  -0.00063  -0.00001  -0.00001  -0.00012   0.00011
  73  C 4   py      -0.00012   0.00007  -0.00018   0.00015  -0.00009  -0.00024
  74  C 4   pz      -0.00001  -0.00003  -0.00000  -0.00007  -0.00009   0.00001
  75  C 5   s        0.00004   0.00002   0.00047   0.00074   0.00006  -0.00006
  76  C 5   s       -0.00004  -0.00001  -0.00002  -0.00036  -0.00005   0.00007
  77  C 5   px      -0.00002  -0.00001  -0.00002  -0.00029  -0.00001   0.00001
  78  C 5   py       0.00002  -0.00000  -0.00009  -0.00001  -0.00001  -0.00000
  79  C 5   pz       0.00001   0.00000  -0.00014  -0.00006  -0.00002   0.00003
  80  C 5   s        0.00016  -0.00003  -0.00132   0.00046   0.00024  -0.00047
  81  C 5   px       0.00026  -0.00004  -0.00043   0.00081   0.00009  -0.00010
  82  C 5   py      -0.00001  -0.00017  -0.00018  -0.00061   0.00014   0.00004
  83  C 5   pz      -0.00014   0.00002   0.00063  -0.00109   0.00024  -0.00021
  84  C 6   s       -0.00007   0.00002   0.00038  -0.00028   0.00010   0.00001
  85  C 6   s        0.00007  -0.00004  -0.00047   0.00038  -0.00010  -0.00002
  86  C 6   px       0.00000   0.00000  -0.00012   0.00010  -0.00003  -0.00001
  87  C 6   py      -0.00000  -0.00002  -0.00005   0.00008   0.00000  -0.00000
  88  C 6   pz      -0.00005   0.00002  -0.00008   0.00006   0.00000  -0.00001
  89  C 6   s       -0.00048   0.00013   0.00172  -0.00154   0.00048   0.00007
  90  C 6   px       0.00002  -0.00008   0.00074  -0.00053   0.00009   0.00015
  91  C 6   py       0.00000   0.00021   0.00068  -0.00068  -0.00013   0.00012
  92  C 6   pz       0.00021  -0.00030   0.00076  -0.00115   0.00005   0.00014
  93  H 1   s       -0.00001  -0.00003  -0.00017   0.00016   0.00006  -0.00003
  94  H 1   s        0.00016   0.00037  -0.00019   0.00014  -0.00054   0.00008
  95  H 2   s        0.00002  -0.00001  -0.00001  -0.00005  -0.00000  -0.00001
  96  H 2   s        0.00015  -0.00001   0.00054  -0.00030  -0.00012   0.00023
  97  H 3   s       -0.00001   0.00004  -0.00008  -0.00005  -0.00002  -0.00006
  98  H 3   s        0.00018  -0.00013   0.00025   0.00081   0.00005   0.00027
  99  H 4   s       -0.00004  -0.00001   0.00003  -0.00012  -0.00000   0.00003
 100  H 4   s        0.00024  -0.00008  -0.00043   0.00037  -0.00011   0.00015
 101  H 5   s        0.00002  -0.00008  -0.00003   0.00001  -0.00001   0.00002
 102  H 5   s       -0.00005  -0.00007  -0.00018   0.00001  -0.00030   0.00012
 103  H 6   s        0.00002   0.00000   0.00004  -0.00004   0.00007   0.00001
 104  H 6   s       -0.00003   0.00039  -0.00042   0.00018  -0.00043   0.00008
 105  H 7   s       -0.00003   0.00014   0.00008   0.00005   0.00005  -0.00002
 106  H 7   s        0.00010  -0.00016  -0.00044  -0.00041  -0.00036   0.00044
 107  H 8   s       -0.00006  -0.00006  -0.00007  -0.00068   0.00007  -0.00006
 108  H 8   s        0.00030   0.00033   0.00061   0.00612  -0.00044   0.00004
 109  H 9   s       -0.00001   0.00000  -0.00005  -0.00056  -0.00003   0.00007
 110  H 9   s        0.00023   0.00007  -0.00054   0.00584  -0.00007   0.00006
 111  H 10  s       -0.00003  -0.00005  -0.00008  -0.00069  -0.00000  -0.00001
 112  H 10  s        0.00049   0.00011  -0.00044   0.00592   0.00003  -0.00021
 113  H 11  s        0.00002   0.00006  -0.00066  -0.00006  -0.00005  -0.00005
 114  H 11  s       -0.00005  -0.00025   0.00594   0.00077   0.00036   0.00025
 115  H 12  s       -0.00002   0.00003  -0.00066  -0.00011  -0.00003   0.00005
 116  H 12  s        0.00028  -0.00032   0.00595  -0.00030   0.00029  -0.00026
 117  H 13  s        0.00000  -0.00001  -0.00055  -0.00008  -0.00002   0.00002
 118  H 13  s        0.00022  -0.00021   0.00582  -0.00033   0.00011  -0.00000
 119  C 7   s       -0.99531  -0.00073   0.00049   0.00052   0.00312  -0.00008
 120  C 7   s       -0.03740  -0.00000  -0.00008  -0.00011  -0.00042   0.00003
 121  C 7   px      -0.00005  -0.00001  -0.00002   0.00001   0.00002  -0.00001
 122  C 7   py      -0.00002   0.00000   0.00001  -0.00000  -0.00013   0.00001
 123  C 7   pz      -0.00008  -0.00000  -0.00002  -0.00001  -0.00025  -0.00003
 124  C 7   s        0.03178  -0.00022   0.00050   0.00075   0.00048  -0.00046
 125  C 7   px       0.00050   0.00004   0.00016  -0.00020  -0.00033   0.00005
 126  C 7   py       0.00013   0.00008  -0.00002   0.00009   0.00025  -0.00001
 127  C 7   pz       0.00086  -0.00009   0.00010   0.00005   0.00019   0.00020
 128  P 3   s        0.00028  -0.00004  -0.00009  -0.00001  -0.00020  -0.00005
 129  P 3   s       -0.00422  -0.00050   0.00053   0.00012   0.00472   0.00026
 130  P 3   px       0.00029   0.00002   0.00001  -0.00018  -0.00005  -0.00012
 131  P 3   py       0.00006   0.00006   0.00015   0.00005   0.00009   0.00001
 132  P 3   pz       0.00019   0.00001  -0.00010   0.00006   0.00020   0.00002
 133  P 3   px       0.00097  -0.00071  -0.00017   0.00093  -0.00098  -0.00000
 134  P 3   py      -0.00121  -0.00028  -0.00087  -0.00106   0.00529  -0.00019
 135  P 3   pz       0.00516  -0.00053   0.00059   0.00001   0.00138  -0.00018
 136  C 8   s        0.00318  -0.00043   0.00027  -0.00460   0.99531   0.00007
 137  C 8   s        0.00068  -0.00014   0.00002  -0.00029   0.03743  -0.00002
 138  C 8   px      -0.00002  -0.00003   0.00000   0.00001   0.00006  -0.00002
 139  C 8   py      -0.00014  -0.00003   0.00002  -0.00003  -0.00013   0.00000
 140  C 8   pz      -0.00024   0.00000   0.00000   0.00004  -0.00013  -0.00000
 141  C 8   s       -0.00075   0.00069  -0.00015   0.00103  -0.03188   0.00005
 142  C 8   px       0.00022   0.00026   0.00007  -0.00011  -0.00051   0.00023
 143  C 8   py       0.00011   0.00005  -0.00018  -0.00002   0.00102  -0.00012
 144  C 8   pz       0.00043   0.00007  -0.00019  -0.00030   0.00062   0.00004
 145  H 14  s        0.00011   0.00006  -0.00005   0.00004  -0.00064  -0.00006
 146  H 14  s        0.00031  -0.00021   0.00032  -0.00045   0.00573   0.00043
 147  H 15  s        0.00007  -0.00005  -0.00000   0.00000  -0.00054  -0.00002
 148  H 15  s        0.00042  -0.00013   0.00009  -0.00038   0.00571   0.00008
 149  H 16  s        0.00010   0.00004  -0.00005   0.00003  -0.00065   0.00002
 150  H 16  s       -0.00072  -0.00042   0.00041  -0.00013   0.00582  -0.00015
 151  C 9   s       -0.00271   0.00137   0.00007  -0.00005   0.00069   0.00053
 152  C 9   s        0.00036  -0.00040  -0.00004   0.00005  -0.00001  -0.00040
 153  C 9   px      -0.00022  -0.00002   0.00003   0.00002   0.00012   0.00004
 154  C 9   py      -0.00011   0.00009  -0.00002  -0.00002  -0.00019   0.00011
 155  C 9   pz      -0.00018  -0.00009   0.00000  -0.00001  -0.00000  -0.00009
 156  C 9   s       -0.00063   0.00166   0.00024  -0.00022  -0.00118   0.00162
 157  C 9   px      -0.00008   0.00004  -0.00024   0.00011   0.00017   0.00026
 158  C 9   py       0.00110  -0.00095   0.00015   0.00023   0.00121  -0.00122
 159  C 9   pz       0.00062   0.00053  -0.00004   0.00000  -0.00013   0.00059
 160  H 17  s        0.00012  -0.00003   0.00002   0.00004   0.00002   0.00003
 161  H 17  s       -0.00007   0.00046  -0.00022  -0.00031  -0.00079   0.00043
 162  H 18  s        0.00007  -0.00017  -0.00001   0.00002  -0.00007  -0.00020
 163  H 18  s       -0.00099  -0.00003  -0.00003  -0.00022  -0.00012   0.00004
 164  C 10  s        0.00068   0.00128   0.00008   0.00003   0.00059  -0.00095
 165  C 10  s       -0.00029  -0.00014  -0.00002  -0.00003  -0.00041   0.00037
 166  C 10  px       0.00011  -0.00009  -0.00001  -0.00004   0.00013   0.00001
 167  C 10  py       0.00003   0.00019   0.00001   0.00002   0.00001  -0.00007
 168  C 10  pz      -0.00002  -0.00002   0.00002  -0.00000   0.00006   0.00028
 169  C 10  s        0.00115  -0.00071   0.00013   0.00035   0.00164  -0.00060
 170  C 10  px      -0.00107   0.00081   0.00015   0.00027  -0.00119   0.00052
 171  C 10  py       0.00055  -0.00037   0.00011  -0.00007   0.00035  -0.00097
 172  C 10  pz      -0.00016  -0.00019  -0.00026  -0.00004  -0.00021  -0.00078
 173  H 19  s       -0.00013  -0.00011   0.00008   0.00007  -0.00016   0.00000
 174  H 19  s       -0.00017   0.00017  -0.00059  -0.00042  -0.00036  -0.00061
 175  H 20  s        0.00006   0.00000   0.00003  -0.00001   0.00000   0.00012
 176  H 20  s        0.00018  -0.00061  -0.00032  -0.00028   0.00038  -0.00006
 177  P 4   s       -0.00003  -0.00021   0.00001  -0.00007  -0.00003   0.00029
 178  P 4   s       -0.00027   0.00468  -0.00016   0.00054  -0.00100  -0.00427
 179  P 4   px      -0.00006   0.00001  -0.00002   0.00013   0.00000  -0.00004
 180  P 4   py      -0.00023  -0.00012  -0.00012  -0.00007  -0.00017   0.00010
 181  P 4   pz       0.00012  -0.00014   0.00005   0.00001   0.00002  -0.00047
 182  P 4   px       0.00045   0.00241  -0.00030  -0.00102   0.00045  -0.00438
 183  P 4   py       0.00071  -0.00397   0.00087   0.00038   0.00019  -0.00018
 184  P 4   pz      -0.00006  -0.00309  -0.00033  -0.00008   0.00041  -0.00236
 185  C 11  s       -0.00074   0.99532   0.00056   0.00028   0.00041  -0.00247
 186  C 11  s       -0.00006   0.03741  -0.00010  -0.00006  -0.00011   0.00039
 187  C 11  px      -0.00001  -0.00001  -0.00002   0.00002  -0.00002   0.00006
 188  C 11  py       0.00000   0.00009   0.00002  -0.00001   0.00001   0.00013
 189  C 11  pz       0.00000   0.00005  -0.00001  -0.00002   0.00001   0.00025
 190  C 11  s        0.00028  -0.03182   0.00077   0.00025   0.00071  -0.00022
 191  C 11  px      -0.00008   0.00026   0.00005  -0.00008  -0.00001  -0.00033
 192  C 11  py       0.00002  -0.00094  -0.00010   0.00017  -0.00006   0.00027
 193  C 11  pz       0.00001  -0.00047   0.00016   0.00013  -0.00004  -0.00046
 194  H 21  s        0.00004  -0.00067   0.00006   0.00003   0.00002   0.00006
 195  H 21  s       -0.00026   0.00593  -0.00038  -0.00013  -0.00037  -0.00062
 196  H 22  s        0.00000  -0.00053   0.00002  -0.00000  -0.00002   0.00003
 197  H 22  s       -0.00005   0.00574  -0.00031   0.00004  -0.00018   0.00056
 198  H 23  s       -0.00004  -0.00063   0.00002  -0.00007   0.00008   0.00010
 199  H 23  s        0.00012   0.00573  -0.00043   0.00025  -0.00054   0.00047
 200  C 12  s        0.00009  -0.00252  -0.00011  -0.00040   0.00007  -0.99531
 201  C 12  s        0.00005  -0.00062  -0.00003  -0.00007   0.00003  -0.03736
 202  C 12  px       0.00004   0.00005  -0.00000  -0.00003  -0.00000   0.00006
 203  C 12  py       0.00002   0.00016   0.00002   0.00002   0.00000   0.00003
 204  C 12  pz       0.00000   0.00021   0.00000   0.00002  -0.00000   0.00016
 205  C 12  s       -0.00043   0.00066   0.00022   0.00026  -0.00010   0.03149
 206  C 12  px      -0.00018  -0.00004   0.00001   0.00004   0.00015  -0.00047
 207  C 12  py      -0.00017  -0.00043  -0.00025  -0.00019  -0.00010  -0.00001
 208  C 12  pz       0.00003  -0.00021  -0.00007  -0.00027   0.00011  -0.00097
 209  H 24  s       -0.00005  -0.00010  -0.00000  -0.00001  -0.00002   0.00068
 210  H 24  s        0.00033   0.00076   0.00009   0.00027   0.00004  -0.00588
 211  H 25  s       -0.00006  -0.00009  -0.00000  -0.00000   0.00007   0.00067
 212  H 25  s        0.00020  -0.00031  -0.00018   0.00011  -0.00037  -0.00576
 213  H 26  s        0.00004  -0.00008   0.00002  -0.00004   0.00001   0.00055
 214  H 26  s        0.00011  -0.00033  -0.00020  -0.00001  -0.00014  -0.00580
 215  H 27  s        0.00053  -0.00000  -0.00001   0.00002  -0.00007  -0.00000
 216  H 27  s       -0.00587  -0.00003  -0.00008  -0.00032  -0.00037   0.00019
 217  H 28  s        0.00067   0.00005  -0.00002   0.00002  -0.00008  -0.00005
 218  H 28  s       -0.00585  -0.00012   0.00007  -0.00050  -0.00047   0.00041
 219  H 29  s        0.00068  -0.00003   0.00006   0.00009  -0.00008  -0.00007
 220  H 29  s       -0.00598   0.00020  -0.00040  -0.00052   0.00056   0.00049
 221  H 30  s       -0.00001  -0.00003   0.00003   0.00006  -0.00002  -0.00003
 222  H 30  s        0.00018   0.00017  -0.00008  -0.00029   0.00007   0.00041
 223  H 31  s       -0.00003  -0.00002  -0.00004   0.00006  -0.00001  -0.00009
 224  H 31  s       -0.00017  -0.00007   0.00014  -0.00036   0.00015   0.00055
 225  H 32  s        0.00007  -0.00000  -0.00001  -0.00002   0.00000   0.00000
 226  H 32  s       -0.00002   0.00010   0.00002  -0.00017  -0.00005   0.00030
 227  H 33  s        0.00017  -0.00014   0.00005   0.00013   0.00016   0.00000
 228  H 33  s       -0.00001  -0.00015  -0.00042  -0.00091  -0.00093   0.00065
                        13        14        15        16        17        18
 eigenvalues:         -3.637    -2.350    -2.327    -2.309    -0.782    -0.773
   1  P 1   s       -0.00033  -0.00009  -0.00368   0.00049  -0.12529  -0.01006
   2  P 1   s        0.00126   0.00119   0.00480   0.00022  -0.08419  -0.00657
   3  P 1   px       0.00033   0.00033  -0.00270  -0.00082   0.02979   0.00386
   4  P 1   py       0.00019   0.00005  -0.00192   0.00115   0.02763   0.00272
   5  P 1   pz      -0.00070   0.00091   0.00332  -0.00064  -0.00731  -0.00194
   6  P 1   px      -0.00349  -0.00090   0.00058   0.00199   0.00201  -0.00470
   7  P 1   py      -0.00221   0.00047   0.00214  -0.00129   0.00247  -0.00036
   8  P 1   pz       0.00619  -0.00270   0.00441  -0.00083  -0.00028   0.00805
   9  Co    s       -0.99879  -0.00024  -0.00042   0.00047   0.00419  -0.00360
  10  Co    s       -0.00573   0.00018   0.00048  -0.00011  -0.02194   0.01954
  11  Co    s        0.00516   0.00404   0.00643  -0.00426   0.00698  -0.00892
  12  Co    px      -0.00059   0.58534   0.35118  -0.72524  -0.00774  -0.00918
  13  Co    py      -0.00022   0.63018   0.35884   0.68298  -0.00717  -0.00676
  14  Co    pz      -0.00002   0.50271  -0.85991  -0.01134   0.00177   0.00623
  15  Co    px      -0.00191   0.01847   0.01133  -0.01793  -0.01701  -0.00477
  16  Co    py      -0.00116   0.01923   0.01106   0.01506  -0.01401  -0.00559
  17  Co    pz       0.00061   0.01540  -0.02426  -0.00101   0.00500   0.00452
  18  Co    px       0.00005  -0.00174  -0.00142   0.00397   0.00807   0.01108
  19  Co    py      -0.00029  -0.00278  -0.00151  -0.00376   0.00702   0.00977
  20  Co    pz      -0.00044  -0.00304   0.00380   0.00002  -0.00633  -0.00635
  21  Co    d 1     -0.00671  -0.00026  -0.00046   0.00059  -0.00650   0.00083
  22  Co    d 2     -0.00299  -0.00032  -0.00021  -0.00074   0.00047  -0.00408
  23  Co    d 3     -0.00142  -0.00007  -0.00082   0.00053   0.00001  -0.00280
  24  Co    d 4     -0.00272  -0.00022   0.00034   0.00039   0.00148  -0.00333
  25  Co    d 5      0.00048   0.00005  -0.00023  -0.00124  -0.00046   0.00088
  26  Co    d 1      0.00047   0.00027  -0.00009   0.00007  -0.00360   0.00204
  27  Co    d 2      0.00033   0.00032  -0.00010  -0.00009   0.00046  -0.00198
  28  Co    d 3     -0.00003  -0.00039   0.00052  -0.00021   0.00100  -0.00026
  29  Co    d 4      0.00042   0.00059  -0.00040   0.00029   0.00053  -0.00218
  30  Co    d 5     -0.00006   0.00021   0.00008   0.00100  -0.00017   0.00080
  31  C 1   s        0.00002   0.00001  -0.00007  -0.00006   0.03276   0.00285
  32  C 1   s        0.00002   0.00016  -0.00090  -0.00056  -0.06296  -0.00493
  33  C 1   px      -0.00019   0.00026  -0.00034  -0.00014   0.01087   0.00098
  34  C 1   py      -0.00009   0.00018  -0.00028  -0.00023  -0.00565  -0.00043
  35  C 1   pz       0.00026  -0.00022   0.00085   0.00040   0.01066   0.00103
  36  C 1   s       -0.00136   0.00046   0.00093   0.00038  -0.05317  -0.00895
  37  C 1   px       0.00235  -0.00168   0.00311   0.00076   0.00273   0.00153
  38  C 1   py      -0.00040  -0.00064   0.00030   0.00126  -0.00053   0.00027
  39  C 1   pz      -0.00072   0.00107  -0.00406  -0.00183   0.00022  -0.00166
  40  C 2   s        0.00004   0.00006  -0.00000   0.00006   0.03200   0.00301
  41  C 2   s        0.00028   0.00070  -0.00034   0.00062  -0.06152  -0.00485
  42  C 2   px      -0.00010   0.00018  -0.00029   0.00026  -0.00448  -0.00038
  43  C 2   py      -0.00018   0.00008  -0.00025   0.00013   0.01239   0.00104
  44  C 2   pz       0.00017  -0.00039   0.00067  -0.00044   0.00943   0.00093
  45  C 2   s       -0.00216  -0.00131  -0.00078  -0.00081  -0.05265  -0.01090
  46  C 2   px       0.00002  -0.00066   0.00035  -0.00113  -0.00082   0.00039
  47  C 2   py       0.00246  -0.00085   0.00306  -0.00138   0.00213   0.00180
  48  C 2   pz      -0.00035   0.00218  -0.00263   0.00180  -0.00033  -0.00060
  49  C 3   s        0.00002  -0.00006   0.00002   0.00005   0.04579   0.00202
  50  C 3   s        0.00005  -0.00083   0.00017   0.00057  -0.08772  -0.00346
  51  C 3   px      -0.00008  -0.00059   0.00004   0.00036  -0.01373  -0.00047
  52  C 3   py      -0.00016  -0.00051   0.00013   0.00023   0.01044   0.00101
  53  C 3   pz      -0.00013  -0.00050   0.00001   0.00017  -0.01089  -0.00106
  54  C 3   s       -0.00109   0.00073  -0.00052  -0.00071  -0.07512  -0.00697
  55  C 3   px      -0.00070   0.00189  -0.00009  -0.00135  -0.00251   0.00065
  56  C 3   py       0.00176   0.00367  -0.00054  -0.00160   0.00318   0.00095
  57  C 3   pz       0.00044   0.00240  -0.00046  -0.00030  -0.00085   0.00062
  58  P 2   s       -0.00034  -0.00302   0.00015  -0.00004  -0.15349  -0.00754
  59  P 2   s        0.00078   0.00608   0.00012  -0.00029  -0.10511  -0.00374
  60  P 2   px       0.00010  -0.00236   0.00060  -0.00077   0.03200   0.00369
  61  P 2   py       0.00022  -0.00224   0.00059   0.00073   0.03429   0.00398
  62  P 2   pz       0.00048  -0.00134  -0.00094  -0.00011  -0.00828  -0.00148
  63  P 2   px      -0.00280   0.00072  -0.00276   0.00207   0.00515  -0.00177
  64  P 2   py      -0.00327  -0.00127  -0.00243  -0.00131   0.00267  -0.00252
  65  P 2   pz      -0.00431  -0.00420   0.00410  -0.00024  -0.00245  -0.00343
  66  C 4   s        0.00005   0.00001   0.00003  -0.00004   0.04494   0.00152
  67  C 4   s        0.00034  -0.00020   0.00031  -0.00046  -0.08598  -0.00264
  68  C 4   px      -0.00021  -0.00050   0.00016  -0.00017   0.00888   0.00097
  69  C 4   py      -0.00007  -0.00043   0.00016  -0.00023  -0.00949  -0.00033
  70  C 4   pz      -0.00003  -0.00036   0.00023  -0.00020  -0.01492  -0.00099
  71  C 4   s       -0.00211  -0.00131   0.00020   0.00049  -0.07549  -0.00568
  72  C 4   px       0.00196   0.00367  -0.00082   0.00091   0.00226   0.00151
  73  C 4   py      -0.00056   0.00074   0.00003   0.00089  -0.00257   0.00047
  74  C 4   pz      -0.00074   0.00036  -0.00120   0.00061  -0.00206   0.00030
  75  C 5   s        0.00002  -0.00005  -0.00013   0.00005   0.11707   0.01137
  76  C 5   s       -0.00003  -0.00065  -0.00139   0.00051  -0.21778  -0.02101
  77  C 5   px      -0.00005  -0.00003  -0.00021   0.00007  -0.01507  -0.00123
  78  C 5   py      -0.00016  -0.00026  -0.00020   0.00015   0.01415   0.00155
  79  C 5   pz       0.00051   0.00048   0.00052  -0.00016   0.03934   0.00386
  80  C 5   s       -0.00199  -0.00101   0.00449  -0.00211  -0.19958  -0.02238
  81  C 5   px      -0.00118  -0.00101   0.00095  -0.00058  -0.00685   0.00075
  82  C 5   py       0.00079   0.00260   0.00160  -0.00038  -0.00410  -0.00055
  83  C 5   pz      -0.00324  -0.00081  -0.00394   0.00205   0.00242  -0.00292
  84  C 6   s       -0.00001  -0.00014   0.00001  -0.00005   0.12324   0.01126
  85  C 6   s       -0.00026  -0.00149  -0.00015  -0.00043  -0.23008  -0.02076
  86  C 6   px      -0.00036  -0.00046  -0.00051  -0.00013   0.00190   0.00049
  87  C 6   py      -0.00020  -0.00039  -0.00021  -0.00012  -0.02742  -0.00232
  88  C 6   pz      -0.00030  -0.00035  -0.00042   0.00002  -0.02772  -0.00370
  89  C 6   s       -0.00092   0.00427  -0.00370   0.00212  -0.20916  -0.02297
  90  C 6   px       0.00261   0.00340   0.00349   0.00033  -0.00443   0.00095
  91  C 6   py       0.00014   0.00263  -0.00112   0.00163  -0.00691   0.00120
  92  C 6   pz       0.00193   0.00270   0.00135   0.00088   0.00386   0.00133
  93  H 1   s       -0.00022  -0.00053  -0.00027  -0.00015  -0.06975  -0.00688
  94  H 1   s       -0.00121  -0.00071  -0.00168   0.00033  -0.00730   0.00351
  95  H 2   s        0.00039   0.00044   0.00047  -0.00004  -0.06759  -0.00623
  96  H 2   s        0.00108   0.00113   0.00145   0.00069  -0.00971   0.00253
  97  H 3   s       -0.00017  -0.00029  -0.00035   0.00004  -0.06589  -0.00686
  98  H 3   s       -0.00089  -0.00124  -0.00105   0.00095  -0.00706   0.00328
  99  H 4   s        0.00041   0.00025   0.00038  -0.00002  -0.06298  -0.00631
 100  H 4   s        0.00112   0.00109   0.00051  -0.00079  -0.00783   0.00269
 101  H 5   s        0.00023   0.00043   0.00000   0.00005  -0.02734  -0.00104
 102  H 5   s        0.00028   0.00131  -0.00081   0.00070  -0.00431   0.00157
 103  H 6   s       -0.00001  -0.00028   0.00012  -0.00010  -0.02590  -0.00059
 104  H 6   s       -0.00095  -0.00140   0.00053  -0.00058  -0.00467   0.00187
 105  H 7   s        0.00008   0.00002   0.00006  -0.00012  -0.02443  -0.00058
 106  H 7   s       -0.00086  -0.00161  -0.00036  -0.00023  -0.00341   0.00120
 107  H 8   s       -0.00009   0.00008  -0.00054  -0.00030  -0.01924  -0.00208
 108  H 8   s       -0.00102   0.00035  -0.00140   0.00035  -0.00340   0.00320
 109  H 9   s        0.00028  -0.00021   0.00049   0.00009  -0.01933  -0.00157
 110  H 9   s        0.00056  -0.00094   0.00180   0.00129  -0.00194   0.00234
 111  H 10  s       -0.00006   0.00025  -0.00019  -0.00021  -0.01739  -0.00154
 112  H 10  s       -0.00078   0.00024  -0.00136  -0.00023  -0.00036   0.00199
 113  H 11  s       -0.00002   0.00023  -0.00028   0.00020  -0.01835  -0.00200
 114  H 11  s       -0.00077   0.00073  -0.00164   0.00100  -0.00287   0.00275
 115  H 12  s       -0.00003   0.00022  -0.00008   0.00014  -0.01690  -0.00160
 116  H 12  s       -0.00082   0.00014  -0.00147   0.00125   0.00008   0.00136
 117  H 13  s        0.00028  -0.00015   0.00045  -0.00015  -0.01915  -0.00166
 118  H 13  s        0.00055  -0.00085   0.00141  -0.00104  -0.00113   0.00232
 119  C 7   s        0.00005  -0.00008   0.00001  -0.00002   0.00422  -0.04321
 120  C 7   s        0.00033  -0.00070   0.00033  -0.00002  -0.00885   0.08250
 121  C 7   px       0.00003   0.00008   0.00002  -0.00009  -0.00042   0.00921
 122  C 7   py       0.00018   0.00008  -0.00063  -0.00045   0.00018  -0.00030
 123  C 7   pz      -0.00000  -0.00017   0.00043   0.00012  -0.00140   0.01518
 124  C 7   s       -0.00228   0.00246   0.00141   0.00105  -0.00149   0.07228
 125  C 7   px      -0.00076  -0.00033   0.00046   0.00076  -0.00011   0.00153
 126  C 7   py      -0.00113  -0.00028   0.00300   0.00278   0.00250   0.00034
 127  C 7   pz      -0.00166   0.00138  -0.00042   0.00103   0.00053   0.00270
 128  P 3   s       -0.00030   0.00087   0.00249   0.00199  -0.01311   0.13983
 129  P 3   s        0.00191  -0.00223  -0.00603  -0.00159  -0.00641   0.09339
 130  P 3   px       0.00003   0.00028  -0.00031  -0.00108  -0.00220   0.03242
 131  P 3   py      -0.00059  -0.00020  -0.00290  -0.00140   0.00005   0.02464
 132  P 3   pz       0.00049   0.00090   0.00097   0.00153   0.00142  -0.01818
 133  P 3   px      -0.00053  -0.00002   0.00226   0.00439   0.00307   0.00461
 134  P 3   py       0.00448  -0.00286   0.00059  -0.00462  -0.01119   0.00537
 135  P 3   pz      -0.00430   0.00118   0.00289   0.00170   0.00486  -0.00363
 136  C 8   s        0.00002   0.00004  -0.00001   0.00004   0.00313  -0.03967
 137  C 8   s        0.00010   0.00051   0.00006   0.00061  -0.00708   0.07637
 138  C 8   px       0.00004  -0.00007   0.00002  -0.00004  -0.00059   0.00853
 139  C 8   py       0.00017  -0.00053  -0.00033  -0.00069   0.00125  -0.01395
 140  C 8   pz      -0.00018   0.00023   0.00022   0.00040   0.00083  -0.00842
 141  C 8   s       -0.00129   0.00005   0.00051   0.00018   0.00076   0.06546
 142  C 8   px      -0.00060   0.00079  -0.00016   0.00069   0.00028   0.00020
 143  C 8   py      -0.00011   0.00215   0.00124   0.00191  -0.00084  -0.00090
 144  C 8   pz       0.00198  -0.00189  -0.00181  -0.00338  -0.00174  -0.00181
 145  H 14  s        0.00006   0.00010   0.00000  -0.00006  -0.00188   0.02152
 146  H 14  s       -0.00066   0.00068  -0.00017   0.00188  -0.00105   0.00153
 147  H 15  s        0.00021  -0.00028  -0.00026  -0.00033  -0.00203   0.02433
 148  H 15  s        0.00052  -0.00122  -0.00084  -0.00140  -0.00175   0.00238
 149  H 16  s       -0.00013   0.00039   0.00031   0.00044  -0.00162   0.02273
 150  H 16  s       -0.00069  -0.00012  -0.00009   0.00154  -0.00163   0.00237
 151  C 9   s       -0.00002   0.00010   0.00012   0.00008   0.00842  -0.11904
 152  C 9   s       -0.00039   0.00096   0.00125   0.00062  -0.01623   0.22254
 153  C 9   px      -0.00001   0.00001  -0.00000  -0.00011  -0.00030   0.01286
 154  C 9   py       0.00047  -0.00043  -0.00055   0.00010   0.00259  -0.03739
 155  C 9   pz      -0.00042   0.00033   0.00046  -0.00014   0.00030  -0.00549
 156  C 9   s       -0.00090  -0.00171  -0.00198  -0.00569  -0.01075   0.20224
 157  C 9   px       0.00057   0.00044   0.00129  -0.00052   0.00020  -0.00494
 158  C 9   py      -0.00207   0.00309   0.00261   0.00259   0.00209  -0.00211
 159  C 9   pz       0.00337  -0.00320  -0.00419   0.00082   0.00002  -0.00046
 160  H 17  s        0.00044  -0.00039  -0.00055   0.00003  -0.00459   0.06590
 161  H 17  s        0.00155  -0.00169  -0.00149   0.00081  -0.00303   0.00703
 162  H 18  s       -0.00034   0.00043   0.00068   0.00006  -0.00436   0.06737
 163  H 18  s       -0.00090   0.00012  -0.00000   0.00003  -0.00425   0.00531
 164  C 10  s       -0.00001   0.00004   0.00011  -0.00016   0.00854  -0.11941
 165  C 10  s       -0.00029   0.00054   0.00113  -0.00147  -0.01600   0.22334
 166  C 10  px       0.00043  -0.00024  -0.00068   0.00023   0.00171  -0.02492
 167  C 10  py      -0.00013   0.00017   0.00013  -0.00004  -0.00152   0.02892
 168  C 10  pz       0.00003   0.00000  -0.00008  -0.00026  -0.00089   0.00943
 169  C 10  s       -0.00077  -0.00006  -0.00136   0.00693  -0.01256   0.20241
 170  C 10  px      -0.00219   0.00124   0.00364  -0.00336   0.00316  -0.00346
 171  C 10  py       0.00090  -0.00011  -0.00046   0.00187  -0.00063  -0.00355
 172  C 10  pz      -0.00137   0.00057   0.00113   0.00253  -0.00120   0.00321
 173  H 19  s       -0.00014   0.00020   0.00042  -0.00021  -0.00451   0.06884
 174  H 19  s       -0.00100  -0.00004   0.00101   0.00060  -0.00400   0.00752
 175  H 20  s        0.00030  -0.00023  -0.00036   0.00009  -0.00462   0.06612
 176  H 20  s        0.00073  -0.00001  -0.00122  -0.00017  -0.00374   0.00793
 177  P 4   s       -0.00023   0.00070   0.00127  -0.00263  -0.01297   0.13669
 178  P 4   s        0.00250  -0.00356  -0.00510   0.00453  -0.00602   0.09057
 179  P 4   px      -0.00068  -0.00014  -0.00155   0.00260  -0.00084   0.03272
 180  P 4   py       0.00054   0.00018   0.00031   0.00055  -0.00164   0.02115
 181  P 4   pz       0.00024   0.00068  -0.00075  -0.00111   0.00143  -0.02044
 182  P 4   px       0.00492  -0.00312   0.00034   0.00367  -0.00949   0.00829
 183  P 4   py      -0.00270   0.00094   0.00077  -0.00796   0.00651   0.00227
 184  P 4   pz      -0.00226  -0.00004   0.00456  -0.00018   0.00221  -0.00312
 185  C 11  s        0.00007  -0.00010  -0.00005   0.00006   0.00402  -0.04097
 186  C 11  s        0.00058  -0.00088  -0.00035   0.00023  -0.00857   0.07855
 187  C 11  px       0.00010   0.00014  -0.00026   0.00065   0.00061  -0.00378
 188  C 11  py       0.00010  -0.00009  -0.00001  -0.00006  -0.00121   0.01551
 189  C 11  pz       0.00005  -0.00008   0.00008   0.00001  -0.00055   0.00665
 190  C 11  s       -0.00297   0.00331   0.00247  -0.00317  -0.00102   0.06794
 191  C 11  px      -0.00016  -0.00075   0.00069  -0.00233   0.00116  -0.00038
 192  C 11  py      -0.00198   0.00094   0.00124  -0.00195   0.00152   0.00187
 193  C 11  pz      -0.00121   0.00079  -0.00008  -0.00205   0.00119   0.00101
 194  H 21  s        0.00012   0.00002  -0.00000  -0.00016  -0.00263   0.02388
 195  H 21  s       -0.00096  -0.00098  -0.00002  -0.00181  -0.00216   0.00349
 196  H 22  s        0.00020  -0.00016  -0.00024   0.00038  -0.00254   0.02539
 197  H 22  s        0.00005   0.00020  -0.00054   0.00099  -0.00189   0.00337
 198  H 23  s        0.00014  -0.00013   0.00006   0.00022  -0.00243   0.02241
 199  H 23  s       -0.00078  -0.00046   0.00007  -0.00141  -0.00068   0.00276
 200  C 12  s        0.00000   0.00006   0.00002  -0.00005   0.00330  -0.03987
 201  C 12  s       -0.00015   0.00072   0.00027  -0.00074  -0.00697   0.07664
 202  C 12  px       0.00026  -0.00067  -0.00014   0.00092   0.00090  -0.00962
 203  C 12  py      -0.00008   0.00005   0.00013  -0.00015   0.00011   0.00156
 204  C 12  pz      -0.00005   0.00004  -0.00013  -0.00018   0.00131  -0.01544
 205  C 12  s       -0.00044  -0.00026  -0.00077   0.00032  -0.00163   0.06482
 206  C 12  px      -0.00105   0.00347   0.00115  -0.00450   0.00060  -0.00020
 207  C 12  py       0.00083  -0.00067  -0.00085   0.00176  -0.00106   0.00001
 208  C 12  pz       0.00152  -0.00130   0.00058   0.00239  -0.00085  -0.00261
 209  H 24  s       -0.00016   0.00041   0.00022  -0.00068  -0.00154   0.02339
 210  H 24  s       -0.00083   0.00011  -0.00049  -0.00065  -0.00229   0.00292
 211  H 25  s        0.00003   0.00024   0.00008  -0.00010  -0.00202   0.02148
 212  H 25  s       -0.00066   0.00029  -0.00112  -0.00126  -0.00090   0.00221
 213  H 26  s        0.00017  -0.00031  -0.00008   0.00048  -0.00207   0.02413
 214  H 26  s        0.00051  -0.00161  -0.00021   0.00214  -0.00163   0.00330
 215  H 27  s        0.00022  -0.00011  -0.00035  -0.00032  -0.00266   0.02636
 216  H 27  s        0.00006   0.00045  -0.00134  -0.00086  -0.00252   0.00424
 217  H 28  s        0.00012  -0.00008   0.00002  -0.00013  -0.00267   0.02385
 218  H 28  s       -0.00072  -0.00088   0.00048   0.00151  -0.00268   0.00208
 219  H 29  s        0.00002  -0.00004   0.00043   0.00021  -0.00227   0.02560
 220  H 29  s       -0.00102  -0.00031   0.00016   0.00126  -0.00288   0.00431
 221  H 30  s        0.00009  -0.00009  -0.00010   0.00003  -0.02489  -0.00049
 222  H 30  s       -0.00071  -0.00118   0.00064   0.00144  -0.00272   0.00216
 223  H 31  s       -0.00008  -0.00064   0.00013   0.00022  -0.02677  -0.00160
 224  H 31  s       -0.00107  -0.00068  -0.00004   0.00045  -0.00550   0.00304
 225  H 32  s        0.00018   0.00044   0.00001  -0.00013  -0.02767  -0.00128
 226  H 32  s        0.00021   0.00176  -0.00053  -0.00082  -0.00477   0.00151
 227  H 33  s       -0.00185   0.01062  -0.00131   0.00038  -0.00268   0.00598
 228  H 33  s        0.00173  -0.01381  -0.00222   0.00200   0.00766   0.00215
                        19        20        21        22        23        24
 eigenvalues:         -0.741    -0.736    -0.715    -0.710    -0.688    -0.679
   1  P 1   s       -0.16305   0.00359  -0.11788  -0.01770  -0.00041  -0.00093
   2  P 1   s       -0.11516   0.00271  -0.08958  -0.01611   0.00205  -0.00381
   3  P 1   px       0.02017  -0.00073  -0.01150  -0.00182   0.00086  -0.00024
   4  P 1   py       0.01289  -0.00049  -0.01877  -0.00374  -0.00261   0.00310
   5  P 1   pz      -0.04437   0.00085  -0.06140  -0.01123  -0.00065   0.00024
   6  P 1   px       0.00644  -0.00262   0.01046   0.00076  -0.00128  -0.00116
   7  P 1   py       0.00820   0.00257   0.01152   0.00172  -0.00209  -0.00272
   8  P 1   pz      -0.00634   0.00122  -0.00805   0.00398   0.00394  -0.00167
   9  Co    s        0.00033  -0.00003   0.00153  -0.00060  -0.00009  -0.00042
  10  Co    s       -0.00102   0.00076  -0.01575   0.00875  -0.00148   0.00276
  11  Co    s        0.01181  -0.00190  -0.00254   0.00846   0.00556  -0.00946
  12  Co    px       0.00060   0.00696  -0.00263  -0.00275  -0.00130  -0.00054
  13  Co    py       0.00169  -0.00844  -0.00171  -0.00175   0.00040  -0.00203
  14  Co    pz       0.01121   0.00227   0.00316   0.00214  -0.00001  -0.00138
  15  Co    px       0.00729  -0.00208  -0.00550  -0.00029   0.00271  -0.00709
  16  Co    py       0.00565   0.00052  -0.00458  -0.00143  -0.00077  -0.00217
  17  Co    pz       0.01000   0.00043   0.00333   0.00198   0.00244   0.00261
  18  Co    px       0.00076  -0.00660   0.00098  -0.00171   0.00831  -0.00170
  19  Co    py       0.00056   0.00834  -0.00173  -0.00189  -0.00548   0.00687
  20  Co    pz      -0.01351  -0.00348  -0.00382   0.00111  -0.00252   0.01253
  21  Co    d 1      0.00174   0.00235   0.00018  -0.00348  -0.00047   0.00059
  22  Co    d 2      0.00622  -0.00537   0.00014  -0.00143   0.00066   0.00084
  23  Co    d 3     -0.00398   0.00194  -0.00482  -0.00208   0.00035  -0.00286
  24  Co    d 4      0.00782   0.00165   0.00091   0.00096  -0.00156   0.00071
  25  Co    d 5     -0.00095  -0.00854  -0.00040  -0.00038  -0.00316  -0.00117
  26  Co    d 1      0.00145   0.00162  -0.00080  -0.00283  -0.00016   0.00035
  27  Co    d 2      0.00505  -0.00388  -0.00035  -0.00186   0.00140   0.00076
  28  Co    d 3     -0.00127   0.00134  -0.00311  -0.00177   0.00023  -0.00202
  29  Co    d 4      0.00531   0.00135   0.00049  -0.00003  -0.00113   0.00038
  30  Co    d 5     -0.00088  -0.00453  -0.00037  -0.00035  -0.00288  -0.00075
  31  C 1   s        0.07151  -0.00082   0.08622   0.01383  -0.00225   0.00332
  32  C 1   s       -0.13508   0.00158  -0.16188  -0.02561   0.00444  -0.00649
  33  C 1   px       0.01291  -0.00060   0.00456   0.00080   0.00014  -0.00015
  34  C 1   py      -0.01044   0.00022  -0.01042  -0.00161  -0.00039   0.00045
  35  C 1   pz       0.01060   0.00000   0.00211  -0.00002  -0.00024  -0.00001
  36  C 1   s       -0.13089   0.00033  -0.16591  -0.02837   0.00461  -0.00562
  37  C 1   px       0.00335  -0.00078   0.00218   0.00166   0.00066   0.00118
  38  C 1   py      -0.00363   0.00074  -0.00720  -0.00200  -0.00169   0.00134
  39  C 1   pz       0.00131  -0.00133   0.00092   0.00006   0.00109   0.00020
  40  C 2   s        0.07414  -0.00208   0.09404   0.01651   0.00346  -0.00403
  41  C 2   s       -0.13950   0.00413  -0.17575  -0.03056  -0.00592   0.00665
  42  C 2   px      -0.00883   0.00020  -0.00930  -0.00132   0.00022  -0.00036
  43  C 2   py       0.01554  -0.00025   0.00673   0.00078  -0.00050   0.00092
  44  C 2   pz       0.00987  -0.00041   0.00200  -0.00001   0.00026   0.00022
  45  C 2   s       -0.13815   0.00344  -0.18446  -0.03368  -0.01101   0.01322
  46  C 2   px      -0.00307  -0.00090  -0.00653  -0.00203   0.00023   0.00108
  47  C 2   py       0.00565   0.00053   0.00601   0.00248   0.00091   0.00069
  48  C 2   pz       0.00226   0.00105   0.00262   0.00063  -0.00090  -0.00005
  49  C 3   s       -0.08627  -0.00166   0.06049   0.01437   0.14742  -0.01237
  50  C 3   s        0.16273   0.00280  -0.11298  -0.02692  -0.27111   0.02282
  51  C 3   px       0.01628  -0.00012  -0.00569  -0.00111   0.02150  -0.00201
  52  C 3   py      -0.01029   0.00130   0.00091   0.00153  -0.01567  -0.00097
  53  C 3   pz       0.00439  -0.00059   0.00530   0.00019   0.00501   0.00111
  54  C 3   s        0.16112   0.00419  -0.11940  -0.02998  -0.31919   0.02824
  55  C 3   px       0.00574  -0.00007  -0.00627  -0.00069  -0.00817   0.00056
  56  C 3   py      -0.00357   0.00066   0.00070   0.00174   0.00397  -0.00019
  57  C 3   pz      -0.00150   0.00147   0.00199   0.00144  -0.01040  -0.00064
  58  P 2   s        0.16760  -0.00357  -0.06270  -0.01714  -0.00751   0.00591
  59  P 2   s        0.12239  -0.00322  -0.04934  -0.01481  -0.00810   0.00746
  60  P 2   px      -0.02673  -0.00160   0.00104   0.00292   0.06786  -0.00559
  61  P 2   py      -0.02636   0.00290  -0.00427   0.00170  -0.05929   0.00323
  62  P 2   pz      -0.04685   0.00108   0.05426   0.01135  -0.01051  -0.00015
  63  P 2   px      -0.01273   0.00144   0.00807   0.00183  -0.00715  -0.00273
  64  P 2   py      -0.00977   0.00117   0.00842   0.00208   0.00852  -0.00789
  65  P 2   pz       0.00280  -0.00070  -0.00019  -0.00071   0.00346  -0.00158
  66  C 4   s       -0.09477   0.00593   0.07315   0.01663  -0.13452   0.00616
  67  C 4   s        0.17725  -0.01081  -0.13626  -0.03091   0.24675  -0.01063
  68  C 4   px      -0.00944  -0.00102   0.00125   0.00186   0.01754  -0.00242
  69  C 4   py       0.01263   0.00017  -0.00508  -0.00129  -0.01886   0.00128
  70  C 4   pz       0.01065  -0.00040   0.00367   0.00047  -0.01315   0.00136
  71  C 4   s        0.18256  -0.01180  -0.14523  -0.03531   0.29550  -0.01818
  72  C 4   px      -0.00442  -0.00145   0.00230   0.00179  -0.00079   0.00084
  73  C 4   py       0.00652  -0.00088  -0.00687  -0.00057   0.00528   0.00057
  74  C 4   pz       0.00462  -0.00020  -0.00266  -0.00045   0.01224  -0.00096
  75  C 5   s        0.05327  -0.00153  -0.07025  -0.01320  -0.00209   0.00250
  76  C 5   s       -0.10042   0.00266   0.12657   0.02361   0.00559  -0.00447
  77  C 5   px      -0.01094   0.00005  -0.01457  -0.00250   0.00279  -0.00006
  78  C 5   py      -0.01449   0.00056  -0.03997  -0.00667  -0.00432   0.00067
  79  C 5   pz      -0.02048   0.00040  -0.04596  -0.00712  -0.00008  -0.00051
  80  C 5   s       -0.09875   0.00379   0.14470   0.02881   0.00355  -0.00660
  81  C 5   px      -0.00241   0.00063   0.00645   0.00094  -0.00311  -0.00089
  82  C 5   py      -0.00381  -0.00105  -0.00071  -0.00004  -0.00510   0.00025
  83  C 5   pz      -0.00030  -0.00014  -0.00220  -0.00147   0.00398  -0.00028
  84  C 6   s       -0.00982   0.00024  -0.08472  -0.01338  -0.00803   0.00047
  85  C 6   s        0.02128  -0.00053   0.15405   0.02411   0.01449   0.00006
  86  C 6   px       0.01086  -0.00070  -0.01604  -0.00317   0.00993   0.00004
  87  C 6   py      -0.00111   0.00021  -0.00124  -0.00038  -0.01071   0.00073
  88  C 6   pz      -0.04809   0.00124   0.04418   0.00954   0.00154  -0.00259
  89  C 6   s        0.01446  -0.00148   0.17454   0.02798   0.01839  -0.00453
  90  C 6   px       0.00160   0.00026   0.00071   0.00069   0.00920  -0.00185
  91  C 6   py      -0.00149   0.00142   0.00702   0.00034  -0.00305   0.00043
  92  C 6   pz      -0.00188  -0.00049  -0.00187  -0.00030  -0.00208   0.00112
  93  H 1   s        0.00746  -0.00067   0.05312   0.00855   0.01194  -0.00072
  94  H 1   s       -0.00028   0.00255   0.01118   0.00034   0.00500   0.00185
  95  H 2   s        0.01170  -0.00018   0.05244   0.00815   0.00289   0.00025
  96  H 2   s        0.00564   0.00068   0.01119   0.00108   0.00139   0.00056
  97  H 3   s       -0.03326   0.00124   0.04235   0.00812  -0.00087  -0.00134
  98  H 3   s       -0.00359  -0.00029   0.00974   0.00047  -0.00290  -0.00076
  99  H 4   s       -0.03643   0.00085   0.04122   0.00816   0.00232  -0.00196
 100  H 4   s       -0.00912   0.00034   0.00830   0.00110  -0.00242  -0.00096
 101  H 5   s        0.06025  -0.00363  -0.04819  -0.01133   0.09190  -0.00386
 102  H 5   s        0.01060  -0.00093  -0.01118  -0.00222   0.02060   0.00148
 103  H 6   s        0.05771  -0.00506  -0.04684  -0.00949   0.09918  -0.00554
 104  H 6   s        0.00776  -0.00111  -0.00978   0.00026   0.02499   0.00063
 105  H 7   s        0.05965  -0.00377  -0.05031  -0.01123   0.09475  -0.00519
 106  H 7   s        0.00835  -0.00064  -0.01416  -0.00178   0.02303   0.00086
 107  H 8   s       -0.04305  -0.00010  -0.05344  -0.00847   0.00211  -0.00255
 108  H 8   s       -0.00514   0.00302  -0.00860  -0.00196  -0.00211  -0.00006
 109  H 9   s       -0.04498   0.00058  -0.05635  -0.00905   0.00154  -0.00223
 110  H 9   s       -0.00733   0.00155  -0.01140  -0.00225  -0.00043  -0.00113
 111  H 10  s       -0.04320   0.00014  -0.05710  -0.00899   0.00164  -0.00199
 112  H 10  s       -0.00419   0.00181  -0.01114  -0.00238  -0.00105  -0.00296
 113  H 11  s       -0.04429   0.00172  -0.05857  -0.01031  -0.00290   0.00308
 114  H 11  s       -0.00628  -0.00203  -0.00995  -0.00312   0.00200  -0.00122
 115  H 12  s       -0.04468   0.00136  -0.06185  -0.01083  -0.00247   0.00320
 116  H 12  s       -0.00491  -0.00014  -0.01245  -0.00333   0.00112  -0.00340
 117  H 13  s       -0.04662   0.00128  -0.06141  -0.01077  -0.00211   0.00270
 118  H 13  s       -0.00698  -0.00040  -0.01213  -0.00282   0.00129  -0.00108
 119  C 7   s       -0.00481  -0.08547   0.01558  -0.08176   0.01069   0.13582
 120  C 7   s        0.00879   0.16085  -0.02961   0.15262  -0.01918  -0.24934
 121  C 7   px      -0.00067   0.00493   0.00158  -0.00521   0.00266   0.00806
 122  C 7   py      -0.00073   0.00205   0.00007   0.00302   0.00153   0.00684
 123  C 7   pz       0.00014   0.01685  -0.00049   0.00457   0.00321   0.03100
 124  C 7   s        0.00986   0.16012  -0.02610   0.16212  -0.02239  -0.29694
 125  C 7   px      -0.00143  -0.00088   0.00138  -0.00304  -0.00084  -0.00629
 126  C 7   py      -0.00095   0.00100   0.00181   0.00024   0.00320   0.00638
 127  C 7   pz       0.00008   0.00627  -0.00121   0.00653  -0.00151  -0.00662
 128  P 3   s        0.00383   0.16552  -0.01467   0.08468   0.00635   0.01399
 129  P 3   s        0.00030   0.11692  -0.00807   0.06430   0.00567   0.01071
 130  P 3   px      -0.00293  -0.00575   0.00845  -0.04460   0.00120   0.00187
 131  P 3   py       0.00064   0.04719  -0.00400   0.03363   0.00617   0.04738
 132  P 3   pz      -0.00147  -0.02673   0.00310  -0.01856   0.00601   0.07366
 133  P 3   px       0.00187   0.01206   0.00176   0.00849   0.00117   0.00024
 134  P 3   py      -0.00439   0.01174  -0.00471   0.01178   0.00281  -0.00899
 135  P 3   pz      -0.00209  -0.00775   0.00513  -0.00631  -0.00211  -0.00877
 136  C 8   s       -0.00138  -0.08085   0.01118  -0.07508  -0.01527  -0.13906
 137  C 8   s        0.00225   0.15224  -0.02094   0.14061   0.02876   0.25542
 138  C 8   px      -0.00014   0.00539   0.00089  -0.00409   0.00012  -0.00454
 139  C 8   py      -0.00047  -0.01597   0.00114  -0.00521   0.00111   0.01643
 140  C 8   pz      -0.00033  -0.01146   0.00118  -0.00626   0.00089   0.01695
 141  C 8   s        0.00516   0.15105  -0.02148   0.14593   0.02875   0.30358
 142  C 8   px       0.00011   0.00099  -0.00020  -0.00111   0.00048   0.00823
 143  C 8   py      -0.00033  -0.00418   0.00061  -0.00503  -0.00194  -0.01121
 144  C 8   pz      -0.00144  -0.00524  -0.00073  -0.00476   0.00039  -0.00273
 145  H 14  s        0.00094   0.04996  -0.00773   0.05091   0.01003   0.09674
 146  H 14  s       -0.00061   0.00664  -0.00160   0.01247   0.00471   0.02418
 147  H 15  s        0.00078   0.05100  -0.00720   0.04893   0.01052   0.09468
 148  H 15  s       -0.00107   0.00786  -0.00133   0.01050   0.00380   0.02085
[...]
    14    1.804951725908e-02
    15   -4.387130659578e+00
    16   -4.373849027336e+00
    17   -1.928214793267e+00
    18   -1.158491107749e+00
    19   -1.154685863457e+00
    20   -6.379092466811e-01
    21   -1.142877848932e-02
    22    7.642836602874e-03
    23   -8.782860525045e-03
    24    2.057264014491e-02
    25   -3.257330091166e-02
    26    7.636417639183e-02
    27   -9.635485380071e-02
    28   -1.833322336897e-02
    29   -2.034737825745e-02
    30    1.403854293928e-01
    31    5.551200249820e-03
    32    1.295105488126e-02
    33   -1.270114393622e-02
    34    2.006912378460e-03
    35    1.766235992365e-02
    36   -3.284055077038e-01
    37    1.032388637609e-01
    38   -4.457556281562e-01
    39   -1.668527261380e-01
    40    1.029564724878e-02
    41    4.425401372972e-02
    42   -6.935943001035e-03
    43   -2.841690176741e-02
    44    2.867727253111e-02
    45   -5.213847780634e-01
    46   -3.611686156518e-01
    47    2.403966211565e-01
    48   -2.011085284293e-01
    49    1.283987464818e-02
    50    1.001243386752e-01
    51    3.490249860323e-02
    52    8.893345924004e-03
    53    1.013045063584e-02
    54   -1.942815926418e-01
    55   -5.824383721995e-01
    56    4.167049349451e-01
    57   -1.097853978125e-01
    58    2.276947747555e-01
    59   -2.548595507713e+00
    60    1.141925646407e-01
    61    1.138405603705e-01
    62    1.512492855308e-01
    63   -1.764773280927e+00
    64   -1.635750831838e+00
    65   -1.774911309357e+00
    66    1.001956463504e-02
    67    7.955385394612e-02
    68   -9.091196665719e-03
    69    1.010410695591e-02
    70    2.595803744258e-03
    71   -2.507150997394e-01
    72    5.075095694371e-01
    73   -3.137756573201e-01
    74   -3.004042145660e-01
    75   -1.316528348604e-02
    76   -9.755756741089e-02
    77    1.498952858719e-02
    78    1.594420127733e-02
    79    3.351597786251e-02
    80    5.682944599810e-01
    81    4.000059988299e-02
    82    3.911924072873e-01
    83    7.441250565666e-02
    84    2.438725906236e-04
    85   -1.900717607958e-02
    86    9.403760588385e-03
    87   -4.056855249531e-03
    88   -5.348750710336e-02
    89    1.475860817135e-01
    90    1.283320033093e-01
    91   -1.598243623148e-01
    92    5.481726659539e-01
    93    9.929942705484e-03
    94   -6.439896733004e-01
    95    5.937475194451e-02
    96   -3.104642290961e-01
    97   -1.707145372533e-02
    98   -4.112428017115e-01
    99    2.158724862206e-02
   100   -1.570535237625e-01
   101    4.978853674561e-02
   102   -3.145951710464e-01
   103   -2.002032228662e-03
   104   -5.704137509920e-01
   105    9.932290726127e-03
   106   -4.620137116677e-01
   107   -5.443914431833e-04
   108   -4.265760008323e-01
   109    2.236547442554e-02
   110    1.259722612088e-03
   111   -1.161749174385e-02
   112    3.682466550062e-01
   113   -1.173893120235e-02
   114   -2.839407279269e-01
   115   -1.641735869989e-02
   116    3.618372934370e-01
   117    4.557650954538e-02
   118    6.181487679755e-02
   119   -1.888746548802e-02
   120   -9.780785314423e-02
   121   -3.419499756288e-03
   122   -1.964526370299e-02
   123    1.252909310808e-02
   124    8.602681343813e-01
   125    1.017815983368e-01
   126    9.134404665683e-03
   127    3.212664892676e-01
   128    3.916991606389e-02
   129    1.106483697755e+00
   130   -9.225308578170e-02
   131   -9.650984088723e-02
   132   -9.815552814630e-02
   133    1.093298116775e+00
   134   -2.579647194248e-02
   135    1.570523276133e+00
   136    7.816952941241e-03
   137    2.084323870605e-02
   138    1.616438327304e-02
   139    3.884679590231e-02
   140   -3.670880225864e-03
   141   -5.420590324014e-01
   142   -3.603592328445e-01
   143   -1.454925247103e-01
   144   -2.485715381059e-01
   145   -2.066790841022e-02
   146   -3.360136674311e-02
   147    1.941627642082e-02
   148    2.646605020863e-01
   149   -2.566738734116e-02
   150    7.511379062559e-01
   151    7.086420846192e-03
   152    6.037787590648e-02
   153    1.199561357564e-03
   154   -1.346859337974e-02
   155    2.011665395278e-02
   156   -4.285812865574e-01
   157    1.983850286360e-01
   158   -2.159105927212e-01
   159   -2.945634973803e-01
   160   -5.753282701671e-03
   161    1.586081902795e-01
   162    2.729681545143e-03
   163    6.509459127336e-01
   164    1.480431323159e-03
   165    1.546084943239e-04
   166    2.565167251298e-02
   167    2.812962472771e-02
   168   -3.373675589214e-03
   169   -2.936203567646e-01
   170   -1.751586345560e-01
   171   -2.391247806931e-01
   172   -1.295012460852e-01
   173   -2.901325113527e-02
   174    3.967073203156e-02
   175    1.039672067751e-02
   176    3.266977252976e-01
   177    2.421357147567e-02
   178    9.189909907155e-01
   179   -7.569157855221e-02
   180   -1.698910043524e-01
   181   -6.162174248840e-02
   182   -3.936253418015e-01
   183    1.687656031741e+00
   184    1.130521610069e+00
   185   -2.306346597697e-02
   186   -1.323187042684e-01
   187   -2.645072142443e-02
   188    3.197889282866e-03
   189    7.126388579064e-03
   190    1.012027339295e+00
   191   -1.246188236735e-01
   192    3.374208803543e-01
   193    1.986851449966e-01
   194   -2.626732651290e-02
   195   -5.826051277080e-02
   196   -4.370443360471e-02
   197    2.330533280938e-02
   198   -9.629316227868e-03
   199   -4.976334960892e-02
   200    1.141180867579e-02
   201    3.787151453560e-02
   202    5.019963051812e-02
   203    1.450160780719e-02
   204   -1.212790233405e-02
   205   -7.648815223096e-01
   206   -1.184037003403e-01
   207   -3.921912141707e-01
   208    3.613399294197e-02
   209   -2.495156843235e-02
   210    8.115481536566e-01
   211   -5.011303805243e-02
   212    1.624408885253e-01
   213    3.912874628504e-02
   214    2.934323793953e-01
   215   -3.874166559420e-02
   216    1.913495168264e-02
   217   -1.831074079487e-02
   218   -4.213926865719e-02
   219   -2.805197239710e-03
   220   -1.176799094973e-01
   221    2.053427645775e-02
   222   -4.108329827462e-01
   223    4.889352904634e-02
   224   -8.010268996115e-01
   225    3.433321321776e-02
   226   -4.192197479304e-01
   227    4.642745301627e-02
   228    2.794706235785e+00
Sym=X
Ene= 0.001265
Spin=Alpha
Occup=0
     1    1.990314818975e-02
     2    1.193287290933e-01
     3   -1.221022012254e-02
     4   -1.083382938961e-04
     5    7.909712260786e-02
     6    2.084728665046e-01
     7    1.520402422941e-01
     8   -7.191691170106e-01
     9   -1.461856322147e+00
    10   -2.426644417685e+00
    11    6.075477312500e+00
    12   -2.201010809153e-02
    13    7.832698286231e-03
    14    3.005337062040e-02
    15    1.980371177631e+00
    16    1.215628711533e+00
    17   -3.501173070325e-01
    18    2.547628304633e-01
    19   -1.298976461379e-01
    20   -5.248803736015e-01
    21   -5.790612029487e-03
    22    2.585123352046e-02
    23   -2.626934423811e-02
    24    1.528157025351e-02
    25   -1.610634792785e-01
    26    6.058546474967e-03
    27    4.638578074681e-02
    28    2.091923145475e-01
    29   -5.998154170463e-02
    30    3.640421164282e-01
    31   -1.693692721246e-03
    32    2.941867527178e-02
    33    3.504454412018e-02
    34    3.454235341252e-02
    35   -7.325181719716e-02
    36    3.848728440649e-01
    37   -2.215429809408e-01
    38   -1.914246198638e-01
    39    4.251945581796e-01
    40   -2.706596618690e-03
    41    8.161273574855e-03
    42    2.829483599211e-02
    43    2.137269445542e-02
    44   -5.795599837891e-02
    45    3.249762547123e-01
    46   -1.555347180268e-01
    47   -1.602060870327e-01
    48    3.529437855724e-01
    49    1.350102076407e-03
    50    1.318930720302e-02
    51    1.894309939199e-02
    52    2.411522295024e-02
    53    1.627270411082e-02
    54    1.966237746039e-01
    55   -1.948484130548e-01
    56   -7.717416376876e-02
    57   -2.541792387849e-01
    58    2.225820682647e-02
    59   -2.537235708953e-01
    60    4.759116909879e-02
    61   -4.591257216455e-02
    62   -1.548721396917e-01
    63   -4.017677260202e-01
    64    2.723013651727e-01
    65    8.612342196635e-01
    66   -1.294102324677e-02
    67   -9.025791248621e-02
    68    2.679388928830e-02
    69    2.223382561422e-02
    70    2.142933974145e-02
    71    8.284197454476e-01
    72   -1.198949743214e-01
    73    1.450570164072e-03
    74   -1.201331433901e-01
    75    7.581081487629e-03
    76    8.252841037389e-02
    77    9.565864173282e-03
    78    2.378489698614e-02
    79   -5.783641658882e-02
    80   -1.093149760156e-01
    81   -8.569364913824e-02
    82   -1.493260908914e-01
    83    3.648220581071e-01
    84    5.620021385521e-03
    85    5.545810472485e-02
    86    1.981466400088e-02
    87    3.312148029663e-02
    88    2.908722265302e-02
    89   -2.219338646861e-02
    90   -1.339838523480e-01
    91   -3.112935740842e-01
    92    6.160423948655e-03
    93    3.748136862707e-02
    94   -4.412015045283e-01
    95   -3.674834864906e-02
    96   -1.882354269857e-01
    97    2.626737461271e-02
    98   -1.208969281595e-01
    99   -5.509934629898e-02
   100   -1.782671083653e-01
   101   -5.195572801047e-02
   102   -2.329829470051e-01
   103    1.415233809619e-02
   104   -3.542015623922e-01
   105    2.291891478594e-02
   106   -5.162572601602e-01
   107    7.465585091505e-02
   108   -4.202595957359e-01
   109   -9.952225580100e-02
   110   -2.488411562320e-01
   111    4.100646560190e-02
   112   -2.983781874215e-01
   113    4.937441277408e-02
   114   -2.414070534894e-01
   115    2.702327822445e-02
   116   -2.383164058041e-01
   117   -8.991773228190e-02
   118   -1.765068718389e-01
   119   -1.342415556585e-03
   120    8.289101227145e-03
   121    2.006330292473e-03
   122   -2.838725883829e-02
   123    3.042915391257e-02
   124    3.462716975530e-01
   125    4.232153618400e-03
   126    8.100095202226e-02
   127   -2.980251185001e-01
   128    1.223424674947e-01
   129   -1.101742250249e+00
   130   -5.741770527811e-02
   131   -1.957494033475e-02
   132   -2.494666169016e-02
   133   -2.497046370652e-02
   134    5.056099696102e-01
   135    3.065345490941e-02
   136    4.415500528687e-03
   137    5.662768165437e-02
   138   -6.800405819828e-03
   139   -6.358824677481e-02
   140    2.310644957970e-02
   141    9.938408436353e-02
   142   -3.703282187015e-02
   143    5.138632531081e-01
   144   -2.936479650156e-02
   145    3.899543457099e-02
   146   -3.430773306989e-01
   147   -5.495025029640e-02
   148   -3.061779737329e-01
   149    5.726248184289e-02
   150   -4.718603585312e-01
   151    9.879236732903e-03
   152    1.095713167032e-01
   153   -2.095324429855e-02
   154   -6.185897161312e-02
   155    4.459961936693e-02
   156   -6.209565232941e-02
   157    2.191151936473e-01
   158    4.016107817375e-01
   159   -2.755972926213e-01
   160   -5.444987618746e-02
   161   -4.087970035700e-01
   162    5.893815346993e-02
   163   -5.120146556623e-01
   164    1.176077186477e-02
   165    1.090189440491e-01
   166   -5.376355518235e-02
   167   -4.450382231265e-03
   168    2.112116139535e-02
   169   -1.498134013239e-01
   170    2.848529688173e-01
   171    5.357670783946e-02
   172   -2.661391085641e-01
   173    5.097130506687e-02
   174   -5.473552920818e-01
   175   -1.525530142412e-02
   176   -3.184929509162e-01
   177    1.756821613777e-01
   178   -1.400568286171e+00
   179   -8.758610331012e-02
   180   -1.194362563443e-01
   181    2.830117062531e-03
   182    8.159512711978e-01
   183    2.440855791934e-01
   184    1.006477162940e-01
   185   -4.571664832239e-03
   186   -2.682013611783e-02
   187   -2.336799639706e-02
   188    1.432423567385e-02
   189    5.108445279002e-03
   190    4.240065685004e-01
   191    7.835039039981e-02
   192   -1.995830878560e-01
   193   -9.068394849460e-02
   194    1.535772352381e-02
   195   -4.274833896074e-01
   196   -2.409484700802e-02
   197   -2.278732845762e-01
   198    2.175436991086e-02
   199   -4.505154123082e-01
   200    7.637376830277e-03
   201    8.506190096312e-02
   202   -6.624619069399e-02
   203    2.508516109007e-03
   204   -1.471137383954e-03
   205    3.517342308913e-02
   206    5.191059683185e-01
   207   -4.414405867189e-02
   208    2.429290960982e-01
   209    6.658499676489e-02
   210   -5.795325425290e-01
   211    3.340030951875e-02
   212   -4.362794371920e-01
   213   -4.527328759560e-02
   214   -3.443536285625e-01
   215   -4.033070459553e-02
   216   -2.279133293418e-01
   217    8.627748433592e-03
   218   -2.841870263623e-01
   219    5.720681200027e-02
   220   -6.315618075963e-01
   221   -4.961914887218e-03
   222   -2.996592896152e-01
   223    6.664809685444e-02
   224   -4.174945786196e-01
   225   -3.995619407793e-02
   226   -2.106504315792e-01
   227    2.217220060783e-02
   228   -1.743717209735e+00
Sym=X
Ene= 0.000356
Spin=Alpha
Occup=0
     1   -6.674590238030e-02
     2    2.213087897034e-01
     3   -2.321310922075e-01
     4   -4.038690336146e-02
     5   -4.921087216952e-02
     6    1.830485749203e+00
     7    7.138888115244e-01
     8    4.127434781827e-02
     9   -2.712798915864e-01
    10   -4.793199581445e-01
    11   -4.261099680568e-01
    12    6.891487201367e-02
    13    2.838801540120e-02
    14    6.698045203830e-02
    15   -4.655725525372e+00
    16   -2.391249122610e+00
    17   -4.431501356408e+00
    18    1.387464687519e+00
    19    4.456035833313e-01
    20    1.514462515218e+00
    21    1.145448478492e-01
    22   -7.274748191149e-03
    23    3.631148515400e-02
    24    7.510717516639e-02
    25    3.434836474486e-02
    26   -2.373208808904e-01
    27    6.458241634121e-02
    28   -1.526415569811e-01
    29   -2.472172184686e-01
    30   -1.231440988505e-02
    31   -7.249795809839e-03
    32   -9.756480578418e-02
    33   -6.342735097683e-03
    34   -8.102192972898e-03
    35    6.178964309062e-02
    36    2.350240520429e-01
    37    2.865437152940e-02
    38   -2.075255116697e-01
    39   -1.184811166055e-01
    40   -7.841112287582e-03
    41   -5.953093086688e-02
    42    3.310970879071e-03
    43   -1.298785111434e-02
    44    2.678507626147e-02
    45    3.604353554118e-01
    46   -1.600342063977e-01
    47   -8.897454148736e-02
    48   -1.901365998891e-01
    49    1.794957221353e-02
    50    1.566245595907e-01
    51    3.698009562793e-02
    52   -1.580072865676e-02
    53    3.041481619330e-02
    54   -8.401394016280e-01
    55   -2.017059103455e-01
    56    3.225402266388e-01
    57   -3.406273890084e-02
    58    3.311572166854e-01
    59   -1.826869740569e+00
    60    8.859369557280e-02
    61    2.262424979557e-01
    62    1.543152870159e-01
    63   -1.506562226134e+00
    64   -2.303951008308e+00
    65   -1.597855194667e+00
    66    2.374181056437e-02
    67    1.859134536273e-01
    68   -1.343957682503e-02
    69    1.152054285151e-02
    70    4.414386875580e-03
    71   -1.203741157482e+00
    72    3.821459076282e-01
    73   -2.052031340253e-01
    74   -2.214374433417e-01
    75   -1.173861896527e-02
    76   -9.408513719825e-02
    77    1.631590688082e-02
    78   -2.975890514132e-02
    79    1.118025260826e-02
    80    2.750695440587e-01
    81    1.436976817672e-01
    82    6.623678829806e-01
    83    3.353742540877e-01
    84    3.421184199414e-03
    85    3.311249462421e-02
    86    2.238697429844e-02
    87   -1.457187620178e-03
    88   -5.861947183651e-02
    89   -9.226620757653e-02
    90   -1.228991226294e-01
    91    1.556456645770e-01
    92    7.771015081860e-01
    93   -7.950943230918e-03
    94    1.228410097254e-01
    95    1.996480107961e-02
    96    1.983859573117e-01
    97   -8.377885587736e-02
    98    1.764891578104e-01
    99   -3.712442377016e-03
   100    1.803198293914e-01
   101    5.067023665577e-02
   102    1.958352704895e-01
   103   -3.565294138534e-03
   104    9.861361760585e-02
   105   -2.942185794630e-02
   106    3.452109402617e-01
   107   -1.314420629836e-02
   108   -3.315103838606e-01
   109   -1.093015556503e-02
   110   -2.559609072453e-02
   111    5.934357924473e-02
   112   -3.647261849227e-01
   113   -6.457350461881e-02
   114    1.294169344656e-02
   115    7.624205372699e-02
   116   -2.814405027945e-01
   117   -1.757541585017e-02
   118    8.760857278133e-03
   119   -8.851401691404e-04
   120   -1.059375592536e-02
   121    5.159159249290e-03
   122   -9.033335850777e-03
   123    5.713733160258e-04
   124   -1.461822991036e-02
   125   -2.398756485895e-02
   126   -8.028413816356e-02
   127    2.295671748798e-01
   128    4.281408577515e-02
   129    5.954772293249e-02
   130   -7.447227573942e-02
   131   -1.631050516167e-01
   132   -9.249959204147e-02
   133    9.324847260424e-01
   134    1.123466538486e+00
   135    6.255410455072e-01
   136    3.888181381601e-03
   137    1.836033900795e-02
   138    1.114286237931e-02
   139    4.780313573541e-02
   140   -1.192646883421e-02
   141   -3.805640202130e-01
   142   -2.531932387557e-01
   143   -6.111229608209e-02
   144    1.897252245978e-01
   145   -6.827656033279e-02
   146    1.155865252250e-01
   147    4.536855472887e-02
   148    9.464145970360e-02
   149    2.476169981904e-02
   150   -1.769570730033e-01
   151   -4.967035765918e-03
   152   -4.402383711096e-02
   153   -1.200359277646e-02
   154    8.914162811899e-03
   155    1.797939035945e-02
   156    3.797161547800e-01
   157    5.381619663390e-01
   158   -3.544289274928e-01
   159   -7.451758291283e-02
   160    3.538267848350e-03
   161   -7.399433431978e-02
   162    4.663121769907e-02
   163   -3.384554047571e-01
   164    2.033131138037e-04
   165   -2.352461532933e-02
   166    3.891114892008e-02
   167    4.015910165451e-02
   168    5.408026293933e-03
   169   -1.986746526350e-01
   170   -1.712314547713e-02
   171   -7.279871363130e-01
   172   -1.695883479833e-01
   173   -6.995347450145e-02
   174    6.714118158908e-02
   175    3.811887949306e-02
   176    4.542993555920e-03
   177   -1.178131827219e-01
   178    7.662030266811e-01
   179    2.382337797359e-02
   180   -1.116370891802e-01
   181   -2.545671318435e-01
   182   -1.114558419322e+00
   183    1.127354304236e+00
   184    1.881799263926e+00
   185   -2.274159967337e-02
   186   -1.586875209691e-01
   187   -1.947557501455e-02
   188   -3.088017119744e-03
   189    1.597742664663e-02
   190    1.053168201910e+00
   191   -8.365972191489e-02
   192    5.102448366919e-01
   193    1.435144936157e-01
   194   -5.361172935683e-02
   195    1.733319174499e-01
   196   -4.481737204277e-02
   197   -6.133307996739e-02
   198    2.919687007681e-03
   199    3.542477997013e-02
   200   -8.338061734881e-03
   201   -1.008327233856e-01
   202    6.931156165371e-02
   203    1.919581132453e-03
   204    8.914103210062e-03
   205    2.798832352711e-01
   206   -1.629807833734e-02
   207   -9.352842653285e-02
   208    1.049243441422e-01
   209    6.968924739453e-02
   210   -4.951139522745e-01
   211   -3.265864882830e-03
   212   -3.905783094688e-01
   213    5.497052899235e-03
   214   -9.810592113540e-02
   215    3.190803088931e-03
   216    1.379246346447e-01
   217   -6.078360878897e-02
   218    3.587284024415e-01
   219   -5.456952702153e-02
   220    3.899299901628e-01
   221   -2.695082104408e-02
   222    3.507783250653e-01
   223   -3.956172391807e-02
   224    2.796326817897e-01
   225    3.715739164097e-02
   226    1.955447586029e-01
   227    1.220809112854e-02
   228    2.541357581364e+00
[5D]


======= END OF MOLDEN-FORMATTED INPUT FILE =======


        *************************************************************
        *                                                           *
        *  Thank you very much for using Q-Chem.  Have a nice day.  *
        *                                                           *
        *************************************************************


0 sent ACK to 0 
now end server 0 ... 
