Process 0 of 2 is on gollum291.lsa.umich.edu - thread support 0
initial socket setup ...start
initial socket setup ...done 
Process 1 of 2 is on gollum291.lsa.umich.edu - thread support 0
now start server 0 ... 
 Q-Chem 4.3.0 for Intel X86 EM64T Linux

 Parts of Q-Chem use Armadillo 5.200.1 (Boston Tea Smuggler).
 http://arma.sourceforge.net/

 Q-Chem begins on Tue Jan 16 16:55:18 2018  

Host: gollum291.lsa.umich.edu
0

     Scratch files written to /tmp/1349883.scr/qchem20369.0//
 Parallel job on  2  processors

Checking the input file for inconsistencies... 	...done.

--------------------------------------------------------------
User input:
--------------------------------------------------------------
$rem
correlation    NONE
EXCHANGE B3LYP
basis laNL2DZ
ECP LANL2DZ
unrestricted   false

jobtype sp
nbo 1

scf_algorithm rca_diis
scf_max_cycles 250

symmetry off
sym_ignore true

print_orbitals 10
molden_format true
$end

$molecule
0 1
  P     -0.66331653      3.85732814     -0.29538635
 Co      0.58384485      4.02789344     -2.17240068
  C      0.25009047      3.25970791      1.29482407
  C     -1.74903099      5.31562973      0.39006196
  C     -1.87641933      4.23114424     -4.98566982
  P     -0.76896487      3.18152870     -3.78602819
  C      0.10712294      1.98443282     -5.01746252
  C     -2.05058012      1.96937029     -3.02268878
  C     -0.71328970      1.25947113     -6.09130146
  H      0.61172847      1.26162816     -4.36537560
  H      0.89569259      2.59134363     -5.47810743
  C     -3.22569703      3.67503337     -5.46478787
  H     -1.23366358      4.46737959     -5.84497551
  H     -2.04504583      5.17150374     -4.45551755
  H      0.79491339      2.36754474      0.96259282
  C     -0.55654838      2.96048398      2.56572315
  H      1.00845732      4.02594476      1.49655711
  H     -1.92676547      5.96293519     -0.47682566
  H     -1.09717068      5.87745401      1.07201873
  C     -3.09172693      5.00621765      1.06968663
  C     -1.96018520      2.45311492     -0.47019389
  C     -2.78179710      2.50925981     -1.77524263
  H     -2.63142785      2.46820623      0.39439802
  H     -1.39313283      1.51510406     -0.43162069
  H     -3.12878255      3.53930857     -1.95423801
  H     -3.69144920      1.90724969     -1.62836264
  H     -1.48512297      1.06946849     -2.75120572
  H     -2.77913670      1.68047194     -3.78710441
  H     -1.34618191      2.22200958      2.38619028
  H     -1.02341005      3.86403745      2.97293467
  H      0.09863461      2.55342659      3.34776519
  H     -3.78949700      4.51505501      0.38217147
  H     -3.56790852      5.93734933      1.40561694
  H     -2.97824675      4.36067524      1.94580370
  H     -3.69804932      4.38047024     -6.16167160
  H     -3.92015459      3.53299263     -4.62896789
  H     -3.12811744      2.71596700     -5.98253618
  H     -0.08135841      0.54940899     -6.64192051
  H     -1.13041415      1.95753188     -6.82556285
  H     -1.54252906      0.68831527     -5.65852764
  H     -1.79358998      9.15396712     -3.62933301
  H     -0.83470087      6.95287021     -4.26034989
  H     -0.03312760      9.27155418     -3.53572021
  C     -0.90918702      8.78151038     -3.09616599
  H      1.84235222      6.60816903     -4.58060179
  C     -0.83073876      7.25381982     -3.20637635
  H      3.08493388      2.16372492     -4.08064361
  H      3.57296648      4.77539756     -4.44105482
  H     -1.71393993      6.79266320     -2.74869870
  H      5.11509093      0.85810886     -3.48868355
  C      2.07016447      6.97281581     -3.57118636
  H      5.54548057      2.57176188     -3.47587783
  C      3.43132379      2.15560092     -3.04069512
  C      4.92622043      1.81381158     -2.98169981
  H     -0.99388576      9.10897169     -2.05502633
  C      3.81250693      5.04276491     -3.40376218
  H      2.02377620      8.06744497     -3.60376419
  P      0.66908767      6.32290515     -2.44021126
  C      3.48853947      6.52778731     -3.15868203
  H      4.21158982      7.13523077     -3.72373400
  H      4.88601796      4.87375371     -3.26391677
  H      2.83976053      1.39277844     -2.52315904
  P      2.81804171      3.82330237     -2.30544779
  H      5.27894177      1.70893772     -1.94994336
  H      3.65841392      6.76791664     -2.09949607
  H      1.20406436      9.39542554     -1.46936604
  C      0.98528474      7.30883284     -0.80233904
  C      1.72088952      8.65718606     -0.85083355
  H     -0.00117469      7.43346844     -0.34053688
  H      2.74011961      8.55462715     -1.23585345
  C      3.78173782      3.89930547     -0.62050054
  H      5.89904574      3.75938450     -1.20204847
  H      1.53334429      6.60605970     -0.16717466
  C      5.23877245      4.38224902     -0.59160283
  H      5.33006317      5.41424558     -0.94990096
  H      3.69956375      2.88739702     -0.20212134
  H      3.16189457      4.54096389      0.01446591
  H      1.79887430      9.07385182      0.16228821
  H      5.62387073      4.36155055      0.43672775
  H      0.70802140      2.53376154     -1.89329618
$end


--------------------------------------------------------------
 ----------------------------------------------------------------
             Standard Nuclear Orientation (Angstroms)
    I     Atom           X                Y                Z
 ----------------------------------------------------------------
    1      P      -0.6633165300     3.8573281400    -0.2953863500
    2      Co      0.5838448500     4.0278934400    -2.1724006800
    3      C       0.2500904700     3.2597079100     1.2948240700
    4      C      -1.7490309900     5.3156297300     0.3900619600
    5      C      -1.8764193300     4.2311442400    -4.9856698200
    6      P      -0.7689648700     3.1815287000    -3.7860281900
    7      C       0.1071229400     1.9844328200    -5.0174625200
    8      C      -2.0505801200     1.9693702900    -3.0226887800
    9      C      -0.7132897000     1.2594711300    -6.0913014600
   10      H       0.6117284700     1.2616281600    -4.3653756000
   11      H       0.8956925900     2.5913436300    -5.4781074300
   12      C      -3.2256970300     3.6750333700    -5.4647878700
   13      H      -1.2336635800     4.4673795900    -5.8449755100
   14      H      -2.0450458300     5.1715037400    -4.4555175500
   15      H       0.7949133900     2.3675447400     0.9625928200
   16      C      -0.5565483800     2.9604839800     2.5657231500
   17      H       1.0084573200     4.0259447600     1.4965571100
   18      H      -1.9267654700     5.9629351900    -0.4768256600
   19      H      -1.0971706800     5.8774540100     1.0720187300
   20      C      -3.0917269300     5.0062176500     1.0696866300
   21      C      -1.9601852000     2.4531149200    -0.4701938900
   22      C      -2.7817971000     2.5092598100    -1.7752426300
   23      H      -2.6314278500     2.4682062300     0.3943980200
   24      H      -1.3931328300     1.5151040600    -0.4316206900
   25      H      -3.1287825500     3.5393085700    -1.9542380100
   26      H      -3.6914492000     1.9072496900    -1.6283626400
   27      H      -1.4851229700     1.0694684900    -2.7512057200
   28      H      -2.7791367000     1.6804719400    -3.7871044100
   29      H      -1.3461819100     2.2220095800     2.3861902800
   30      H      -1.0234100500     3.8640374500     2.9729346700
   31      H       0.0986346100     2.5534265900     3.3477651900
   32      H      -3.7894970000     4.5150550100     0.3821714700
   33      H      -3.5679085200     5.9373493300     1.4056169400
   34      H      -2.9782467500     4.3606752400     1.9458037000
   35      H      -3.6980493200     4.3804702400    -6.1616716000
   36      H      -3.9201545900     3.5329926300    -4.6289678900
   37      H      -3.1281174400     2.7159670000    -5.9825361800
   38      H      -0.0813584100     0.5494089900    -6.6419205100
   39      H      -1.1304141500     1.9575318800    -6.8255628500
   40      H      -1.5425290600     0.6883152700    -5.6585276400
   41      H      -1.7935899800     9.1539671200    -3.6293330100
   42      H      -0.8347008700     6.9528702100    -4.2603498900
   43      H      -0.0331276000     9.2715541800    -3.5357202100
   44      C      -0.9091870200     8.7815103800    -3.0961659900
   45      H       1.8423522200     6.6081690300    -4.5806017900
   46      C      -0.8307387600     7.2538198200    -3.2063763500
   47      H       3.0849338800     2.1637249200    -4.0806436100
   48      H       3.5729664800     4.7753975600    -4.4410548200
   49      H      -1.7139399300     6.7926632000    -2.7486987000
   50      H       5.1150909300     0.8581088600    -3.4886835500
   51      C       2.0701644700     6.9728158100    -3.5711863600
   52      H       5.5454805700     2.5717618800    -3.4758778300
   53      C       3.4313237900     2.1556009200    -3.0406951200
   54      C       4.9262204300     1.8138115800    -2.9816998100
   55      H      -0.9938857600     9.1089716900    -2.0550263300
   56      C       3.8125069300     5.0427649100    -3.4037621800
   57      H       2.0237762000     8.0674449700    -3.6037641900
   58      P       0.6690876700     6.3229051500    -2.4402112600
   59      C       3.4885394700     6.5277873100    -3.1586820300
   60      H       4.2115898200     7.1352307700    -3.7237340000
   61      H       4.8860179600     4.8737537100    -3.2639167700
   62      H       2.8397605300     1.3927784400    -2.5231590400
   63      P       2.8180417100     3.8233023700    -2.3054477900
   64      H       5.2789417700     1.7089377200    -1.9499433600
   65      H       3.6584139200     6.7679166400    -2.0994960700
   66      H       1.2040643600     9.3954255400    -1.4693660400
   67      C       0.9852847400     7.3088328400    -0.8023390400
   68      C       1.7208895200     8.6571860600    -0.8508335500
   69      H      -0.0011746900     7.4334684400    -0.3405368800
   70      H       2.7401196100     8.5546271500    -1.2358534500
   71      C       3.7817378200     3.8993054700    -0.6205005400
   72      H       5.8990457400     3.7593845000    -1.2020484700
   73      H       1.5333442900     6.6060597000    -0.1671746600
   74      C       5.2387724500     4.3822490200    -0.5916028300
   75      H       5.3300631700     5.4142455800    -0.9499009600
   76      H       3.6995637500     2.8873970200    -0.2021213400
   77      H       3.1618945700     4.5409638900     0.0144659100
   78      H       1.7988743000     9.0738518200     0.1622882100
   79      H       5.6238707300     4.3615505500     0.4367277500
   80      H       0.7080214000     2.5337615400    -1.8932961800
 ----------------------------------------------------------------
 Nuclear Repulsion Energy =  2898.0428896593 hartrees
 There are      111 alpha and      111 beta electrons
 Requested basis set is LANL2DZ
 There are 196 shells and 358 basis functions

 Total QAlloc Memory Limit   2000 MB
 Mega-Array Size        61 MB
 MEM_STATIC part        62 MB
 A cutoff of  1.0D-09 yielded  10464 shell pairs
 There are     39012 function pairs (     39616 Cartesian)
 
 -------------------------------------------------------
 OpenMP Integral Computing Module                       
 Release: version 1.0, May 2013, Q-Chem Inc. Pittsburgh 
 -------------------------------------------------------
 Integral Job Info:
 Integral job number is                      11
 Integral operator is                         1
 short-range coefficients                     0
 long-range coefficients              100000000
 Omega coefficients                           0
 if combine SR and LR in K                    0
 Integral screening is                        0
 Integral computing path is                   2
 max size of driver memory is            800000
 size of driver memory is                593474
 size of scratch memory is             29522520
 max col of scratch BK array               1296
 max len of scratch array in speh3          155
 max len of scratch index in speh4           18
 max int batch size is                      520
 min int batch size is                       52
 fixed nKL is                                45
 max L of basis functions is                  2
 order of int derivative is                   0
 number of shells is                        196
 number of basis is                         360
 number of cartesian basis is               360
 number of contracted shell pairs         10464
 number of primitive shell pairs          29990
 maxK2 (contraction) of shell pair           36
 max number of K2 of shell pair               1
 max number of CS2 of shell pair           1690
 max number of PS2 of shell pair           4584
 mem total for path MDJ                   82944
 -------------------------------------------------------
 Requested basis set is LANL2DZ
 Compound shells will be simplified
 There are 240 shells and 358 basis functions
 A cutoff of  1.0D-09 yielded  15869 shell pairs
 There are     38923 function pairs (     39527 Cartesian)
 Smallest overlap matrix eigenvalue = 3.51E-03

 Scale SEOQF with 1.000000e-02/1.000000e-02/1.000000e-02

 Standard Electronic Orientation quadrupole field applied
 Nucleus-field energy     =     0.0000000209 hartrees
 length of FILE_MO_COEFS: 0 
 Guess from superposition of atomic densities
 Warning:  Energy on first SCF cycle will be non-variational
  NBasis: 358 NBas6D: 360 NB2: 39012 NB2car: 39616 NOrb: 358 
 A restricted hybrid HF-DFT SCF calculation will be
 performed using Relaxed Constraint Minimization + Pulay DIIS
 Exchange:     0.2000 Hartree-Fock + 0.0800 Slater + 0.7200 B88
 Correlation:  0.1900 VWN1RPA + 0.8100 LYP
 Using SG-1 standard quadrature grid
 SCF converges when DIIS error is below 1.0E-05
 ---------------------------------------
  Cycle       Energy         DIIS Error
 ---------------------------------------
    1   -1044.2198322167      4.44E-02
    2   -1040.0014035994      9.02E-03
    3   -1040.4258810842      3.06E-03
    4   -1040.9226587287      1.71E-03
    5   -1041.0029306537      1.42E-03
    6   -1041.0194270438      6.03E-04 Done RCA. Switching to DIIS
    7   -1041.0703019677      1.54E-03
    8   -1041.0972770734      1.15E-04
    9   -1041.0975947229      2.97E-05
   10   -1041.0976302234      2.12E-05
   11   -1041.0976400849      6.25E-06 Convergence criterion met
 ---------------------------------------
 SCF time:  CPU 447.24 s  wall 441.52 s
 SCF   energy in the final basis set = -1041.0976400849
 Total energy in the final basis set = -1041.0976400849
 
 --------------------------------------------------------------
 
                    Orbital Energies (a.u.)
 --------------------------------------------------------------
 
 Alpha MOs
 -- Occupied --
-10.184 -10.181 -10.179 -10.178 -10.175 -10.174 -10.174 -10.172
-10.172 -10.169 -10.169 -10.168 -10.168 -10.167 -10.166 -10.166
-10.165 -10.165 -10.165 -10.164 -10.164 -10.163  -3.627  -2.341
 -2.315  -2.302  -0.795  -0.784  -0.773  -0.766  -0.758  -0.752
 -0.749  -0.741  -0.740  -0.738  -0.693  -0.683  -0.657  -0.646
 -0.636  -0.632  -0.615  -0.606  -0.605  -0.602  -0.590  -0.582
 -0.527  -0.515  -0.514  -0.509  -0.461  -0.457  -0.452  -0.448
 -0.446  -0.445  -0.441  -0.434  -0.432  -0.428  -0.423  -0.421
 -0.415  -0.412  -0.405  -0.402  -0.399  -0.398  -0.396  -0.394
 -0.391  -0.384  -0.381  -0.378  -0.372  -0.369  -0.367  -0.365
 -0.362  -0.360  -0.358  -0.356  -0.351  -0.350  -0.347  -0.345
 -0.342  -0.341  -0.339  -0.333  -0.331  -0.327  -0.310  -0.302
 -0.296  -0.290  -0.288  -0.284  -0.283  -0.278  -0.275  -0.238
 -0.238  -0.237  -0.210  -0.174  -0.164  -0.123  -0.113
 -- Virtual --
  0.021   0.025   0.025   0.046   0.053   0.063   0.069   0.075
  0.082   0.090   0.094   0.098   0.101   0.104   0.106   0.110
  0.115   0.118   0.121   0.124   0.127   0.129   0.134   0.136
  0.140   0.141   0.142   0.145   0.148   0.152   0.156   0.157
  0.160   0.161   0.162   0.164   0.168   0.169   0.171   0.173
  0.176   0.180   0.184   0.189   0.194   0.195   0.199   0.202
  0.203   0.204   0.207   0.210   0.213   0.216   0.217   0.221
  0.223   0.225   0.230   0.236   0.237   0.238   0.242   0.245
  0.249   0.250   0.252   0.254   0.258   0.265   0.267   0.270
  0.276   0.279   0.280   0.290   0.292   0.300   0.309   0.313
  0.334   0.340   0.362   0.399   0.481   0.485   0.497   0.502
  0.508   0.512   0.518   0.524   0.531   0.533   0.535   0.546
  0.551   0.555   0.572   0.581   0.583   0.590   0.594   0.596
  0.598   0.603   0.605   0.608   0.612   0.615   0.618   0.624
  0.627   0.628   0.634   0.635   0.647   0.650   0.659   0.664
  0.668   0.680   0.682   0.688   0.695   0.699   0.705   0.715
  0.720   0.725   0.729   0.733   0.739   0.742   0.745   0.754
  0.757   0.760   0.764   0.771   0.780   0.784   0.794   0.803
  0.827   0.838   0.845   0.852   0.859   0.870   0.874   0.889
  0.892   0.900   0.905   0.912   0.921   0.925   0.926   0.928
  0.936   0.938   0.941   0.942   0.947   0.950   0.951   0.953
  0.955   0.957   0.961   0.961   0.970   0.971   0.974   0.977
  0.980   0.988   0.990   0.992   0.997   1.003   1.003   1.004
  1.012   1.014   1.019   1.026   1.029   1.035   1.044   1.046
  1.051   1.058   1.060   1.067   1.069   1.070   1.078   1.080
  1.082   1.087   1.096   1.098   1.103   1.111   1.118   1.123
  1.128   1.130   1.145   1.149   1.156   1.164   1.169   1.177
  1.181   1.185   1.188   1.204   1.212   1.225   1.238   1.255
  1.258   1.288   1.332   1.340   1.358   1.440   1.447   1.469
  1.485   1.491   1.508   1.536   1.555   1.572   1.597   1.613
  1.716   1.735   7.126  16.904  16.965  17.218  17.726
 --------------------------------------------------------------
 

                        RESTRICTED (RHF) MOLECULAR ORBITAL COEFFICIENTS
                         1         2         3         4         5         6
 eigenvalues:        -10.184   -10.181   -10.179   -10.178   -10.175   -10.174
   1  P 1   s        0.00001  -0.00001   0.00002  -0.00005  -0.00001  -0.00033
   2  P 1   s       -0.00050   0.00092  -0.00019  -0.00052   0.00001   0.00038
   3  P 1   px      -0.00002   0.00006   0.00005  -0.00012  -0.00000   0.00053
   4  P 1   py      -0.00012   0.00017  -0.00000  -0.00010  -0.00008   0.00016
   5  P 1   pz      -0.00001  -0.00007  -0.00003   0.00014   0.00005   0.00042
   6  P 1   px      -0.00003  -0.00014  -0.00079   0.00057  -0.00005  -0.00217
   7  P 1   py       0.00066  -0.00101   0.00055  -0.00013   0.00094   0.00074
   8  P 1   pz       0.00045  -0.00058   0.00062  -0.00050  -0.00021  -0.00164
   9  Co    s        0.00006   0.00024  -0.00019  -0.00003  -0.00016   0.00007
  10  Co    s        0.00008   0.00029  -0.00023  -0.00007  -0.00027   0.00012
  11  Co    s        0.00032  -0.00165  -0.00081  -0.00074  -0.00076   0.00057
  12  Co    px       0.00004  -0.00006  -0.00003   0.00001  -0.00000   0.00000
  13  Co    py       0.00003   0.00002   0.00002  -0.00005   0.00002   0.00002
  14  Co    pz      -0.00000   0.00001  -0.00002  -0.00001  -0.00000  -0.00001
  15  Co    px      -0.00115   0.00209  -0.00014  -0.00118   0.00031   0.00133
  16  Co    py      -0.00203   0.00475  -0.00447   0.00351  -0.00408  -0.00154
  17  Co    pz      -0.00003   0.00006   0.00199  -0.00015   0.00024   0.00023
  18  Co    px      -0.00076   0.00185   0.00031  -0.00025  -0.00051   0.00195
  19  Co    py      -0.00020  -0.00042   0.00047  -0.00041   0.00032   0.00030
  20  Co    pz       0.00019   0.00049   0.00056   0.00122  -0.00010  -0.00010
  21  Co    d 1      0.00008  -0.00005  -0.00001   0.00004  -0.00001  -0.00000
  22  Co    d 2      0.00001  -0.00002  -0.00005  -0.00001   0.00001  -0.00001
  23  Co    d 3     -0.00002   0.00003   0.00002  -0.00001  -0.00001  -0.00004
  24  Co    d 4      0.00001   0.00001   0.00002   0.00000  -0.00000  -0.00001
  25  Co    d 5      0.00002  -0.00002   0.00000  -0.00003  -0.00001   0.00004
  26  Co    d 1     -0.00052   0.00032   0.00005  -0.00025  -0.00000  -0.00003
  27  Co    d 2     -0.00007   0.00009   0.00036   0.00013  -0.00007   0.00004
  28  Co    d 3      0.00009  -0.00018  -0.00007   0.00006   0.00005   0.00027
  29  Co    d 4     -0.00008  -0.00014  -0.00009   0.00007   0.00005   0.00005
  30  Co    d 5     -0.00010   0.00003  -0.00004   0.00015   0.00011  -0.00033
  31  C 1   s        0.00004  -0.00015   0.00020  -0.00010   0.00004  -0.00121
  32  C 1   s        0.00003  -0.00010   0.00012  -0.00006  -0.00000  -0.00053
  33  C 1   px      -0.00001   0.00002   0.00006  -0.00001   0.00001   0.00014
  34  C 1   py       0.00002  -0.00005   0.00003   0.00000   0.00002   0.00006
  35  C 1   pz       0.00001   0.00000  -0.00002   0.00002  -0.00001   0.00010
  36  C 1   s       -0.00010   0.00033  -0.00016   0.00029   0.00012   0.00167
  37  C 1   px       0.00006  -0.00004  -0.00023   0.00007  -0.00018  -0.00071
  38  C 1   py      -0.00024   0.00038  -0.00030   0.00002  -0.00018  -0.00029
  39  C 1   pz      -0.00009   0.00003   0.00014  -0.00012  -0.00006  -0.00107
  40  C 2   s        0.00005  -0.00067   0.00091  -0.00024   0.00285   0.00944
  41  C 2   s        0.00006  -0.00035   0.00027  -0.00007   0.00026   0.00071
  42  C 2   px      -0.00002   0.00007  -0.00006  -0.00005   0.00000  -0.00009
  43  C 2   py      -0.00002  -0.00000  -0.00014   0.00002   0.00004  -0.00012
  44  C 2   pz       0.00001  -0.00003   0.00003  -0.00001  -0.00004  -0.00014
  45  C 2   s       -0.00037   0.00177  -0.00153   0.00021  -0.00073  -0.00140
  46  C 2   px       0.00002  -0.00024   0.00020   0.00037  -0.00008   0.00067
  47  C 2   py       0.00018   0.00013   0.00062  -0.00021  -0.00015   0.00063
  48  C 2   pz      -0.00003  -0.00020  -0.00014   0.00013   0.00034   0.00103
  49  C 3   s       -0.00004  -0.00006   0.00024  -0.00019   0.00048   0.00134
  50  C 3   s       -0.00002  -0.00010   0.00015  -0.00011   0.00014   0.00038
  51  C 3   px       0.00001   0.00005   0.00001   0.00000   0.00001  -0.00009
  52  C 3   py      -0.00001   0.00015  -0.00001  -0.00001   0.00002  -0.00006
  53  C 3   pz       0.00000   0.00002  -0.00000  -0.00002   0.00002   0.00017
  54  C 3   s        0.00007   0.00085  -0.00079   0.00042  -0.00051  -0.00109
  55  C 3   px      -0.00020  -0.00014  -0.00019   0.00010  -0.00018   0.00066
  56  C 3   py       0.00014  -0.00085   0.00002  -0.00001   0.00002   0.00017
  57  C 3   pz      -0.00004   0.00005  -0.00007   0.00032  -0.00018  -0.00111
  58  P 2   s        0.00000  -0.00007  -0.00001   0.00001   0.00001  -0.00031
  59  P 2   s       -0.00064   0.00118   0.00037   0.00042  -0.00012   0.00030
  60  P 2   px      -0.00006  -0.00006  -0.00002   0.00001   0.00001   0.00050
  61  P 2   py      -0.00014  -0.00004  -0.00002   0.00019  -0.00004  -0.00001
  62  P 2   pz       0.00004  -0.00015   0.00005   0.00002   0.00003  -0.00046
  63  P 2   px       0.00009   0.00082  -0.00001   0.00042  -0.00025  -0.00200
  64  P 2   py       0.00055   0.00045   0.00081  -0.00109   0.00063   0.00120
  65  P 2   pz      -0.00054   0.00169  -0.00058   0.00012  -0.00051   0.00120
  66  C 4   s       -0.00000  -0.00017   0.00012   0.00011   0.00014  -0.00092
  67  C 4   s       -0.00000  -0.00015   0.00008   0.00011   0.00005  -0.00050
  68  C 4   px       0.00000   0.00002   0.00002  -0.00003   0.00002   0.00012
  69  C 4   py       0.00004  -0.00005   0.00001  -0.00005   0.00004   0.00000
  70  C 4   pz      -0.00000  -0.00002  -0.00002  -0.00003   0.00002  -0.00009
  71  C 4   s        0.00009   0.00041  -0.00037  -0.00088  -0.00000   0.00160
  72  C 4   px      -0.00006  -0.00028  -0.00018   0.00020  -0.00018  -0.00068
  73  C 4   py      -0.00030   0.00044  -0.00017   0.00027  -0.00028   0.00023
  74  C 4   pz       0.00010   0.00017   0.00021   0.00005  -0.00005   0.00091
  75  C 5   s       -0.00002  -0.00005   0.00004  -0.00003   0.00004   0.00539
  76  C 5   s       -0.00003  -0.00007   0.00001  -0.00002   0.00003  -0.00121
  77  C 5   px       0.00001  -0.00004   0.00001   0.00002   0.00001   0.00021
  78  C 5   py       0.00002  -0.00003   0.00000  -0.00001   0.00000  -0.00018
  79  C 5   pz       0.00002  -0.00000   0.00001  -0.00001   0.00001  -0.00025
  80  C 5   s        0.00036   0.00004   0.00008  -0.00006  -0.00002   0.00986
  81  C 5   px       0.00006   0.00025   0.00004  -0.00021   0.00006  -0.00233
  82  C 5   py      -0.00009   0.00021   0.00002   0.00012  -0.00003   0.00168
  83  C 5   pz      -0.00016  -0.00015  -0.00017   0.00017  -0.00012   0.00472
  84  C 6   s       -0.00000  -0.00008   0.00002   0.00001   0.00006  -0.00016
  85  C 6   s        0.00001  -0.00007   0.00001  -0.00002   0.00004  -0.00003
  86  C 6   px      -0.00000   0.00001   0.00000   0.00001  -0.00000   0.00000
  87  C 6   py      -0.00001  -0.00002   0.00000   0.00001   0.00000  -0.00007
  88  C 6   pz      -0.00001  -0.00002  -0.00000   0.00001  -0.00000  -0.00009
  89  C 6   s       -0.00010   0.00019  -0.00002   0.00029  -0.00024  -0.00039
  90  C 6   px      -0.00004  -0.00001   0.00007   0.00010  -0.00003   0.00020
  91  C 6   py       0.00006   0.00007   0.00007   0.00003  -0.00002   0.00033
  92  C 6   pz      -0.00006   0.00014   0.00000   0.00022  -0.00011   0.00004
  93  H 1   s        0.00001  -0.00003  -0.00003   0.00000  -0.00000  -0.00014
  94  H 1   s       -0.00027   0.00037   0.00013   0.00032  -0.00004  -0.00004
  95  H 2   s        0.00000  -0.00006  -0.00003  -0.00009   0.00002  -0.00001
  96  H 2   s        0.00016   0.00018   0.00052   0.00041   0.00017   0.00029
  97  C 7   s       -0.00003  -0.00004   0.00006   0.00004   0.00004   0.00009
  98  C 7   s       -0.00001  -0.00000   0.00003   0.00003   0.00001  -0.00003
  99  C 7   px      -0.00001  -0.00005   0.00001   0.00000   0.00001   0.00006
 100  C 7   py       0.00000  -0.00005   0.00002  -0.00000   0.00001  -0.00002
 101  C 7   pz      -0.00001  -0.00003   0.00001  -0.00000   0.00000   0.00002
 102  C 7   s       -0.00004  -0.00058  -0.00005  -0.00005  -0.00001   0.00057
 103  C 7   px      -0.00004  -0.00007   0.00005   0.00004  -0.00006  -0.00009
 104  C 7   py      -0.00008   0.00027  -0.00009   0.00000  -0.00004   0.00025
 105  C 7   pz       0.00001   0.00006  -0.00000  -0.00004  -0.00000   0.00046
 106  H 3   s        0.00000   0.00007  -0.00001  -0.00004   0.00002  -0.00010
 107  H 3   s       -0.00005   0.00011   0.00027   0.00031  -0.00000  -0.00035
 108  H 4   s        0.00005   0.00005  -0.00003  -0.00005  -0.00002   0.00018
 109  H 4   s       -0.00037  -0.00004   0.00043   0.00006   0.00009   0.00028
 110  H 5   s       -0.00001   0.00005   0.00008   0.00001  -0.00003  -0.00012
 111  H 5   s       -0.00018   0.00003  -0.00030  -0.00020   0.00004  -0.00021
 112  C 8   s        0.00000  -0.00003   0.00004  -0.00011   0.00002  -0.00023
 113  C 8   s       -0.00000  -0.00001   0.00004  -0.00008   0.00001  -0.00005
 114  C 8   px       0.00000  -0.00000  -0.00000   0.00001  -0.00000   0.00001
 115  C 8   py      -0.00000   0.00000   0.00002  -0.00001   0.00000  -0.00003
 116  C 8   pz      -0.00001   0.00001  -0.00001   0.00001   0.00000   0.00012
 117  C 8   s        0.00008  -0.00000  -0.00016   0.00032  -0.00009  -0.00031
 118  C 8   px       0.00002   0.00000   0.00001  -0.00009  -0.00001   0.00019
 119  C 8   py       0.00007  -0.00014  -0.00006   0.00007   0.00004   0.00034
 120  C 8   pz       0.00003  -0.00002   0.00019  -0.00001   0.00004  -0.00019
 121  H 6   s        0.00001  -0.00002  -0.00000   0.00003  -0.00001  -0.00003
 122  H 6   s        0.00008  -0.00025   0.00025  -0.00029   0.00023   0.00046
 123  H 7   s       -0.00002   0.00016  -0.00018  -0.00004  -0.00003   0.00018
 124  H 7   s        0.00000  -0.00132   0.00076   0.00027   0.00052   0.00037
 125  H 8   s        0.00003  -0.00005  -0.00013   0.00004   0.00007  -0.00011
 126  H 8   s       -0.00013   0.00001   0.00063  -0.00041  -0.00014  -0.00033
 127  C 9   s       -0.00003  -0.00000   0.00022  -0.00017   0.00004   0.00028
 128  C 9   s       -0.00003   0.00005   0.00006  -0.00009  -0.00000  -0.00000
 129  C 9   px       0.00000  -0.00003   0.00006  -0.00002   0.00000   0.00006
 130  C 9   py       0.00001  -0.00005   0.00007   0.00001   0.00001  -0.00002
 131  C 9   pz      -0.00002   0.00007  -0.00004  -0.00000  -0.00002  -0.00002
 132  C 9   s        0.00022  -0.00067   0.00042   0.00032   0.00004   0.00056
 133  C 9   px       0.00006  -0.00012   0.00015   0.00008  -0.00003  -0.00011
 134  C 9   py      -0.00006   0.00012  -0.00035  -0.00001  -0.00000   0.00002
 135  C 9   pz       0.00005  -0.00014  -0.00002  -0.00006   0.00003  -0.00052
 136  C 10  s       -0.00005  -0.00001   0.00007  -0.00015   0.00004   0.00615
 137  C 10  s       -0.00005   0.00000   0.00006  -0.00011   0.00002  -0.00117
 138  C 10  px       0.00001  -0.00002   0.00003  -0.00001   0.00000   0.00023
 139  C 10  py       0.00001  -0.00001   0.00001  -0.00000  -0.00000  -0.00009
 140  C 10  pz      -0.00001   0.00005  -0.00001  -0.00001  -0.00002   0.00029
 141  C 10  s        0.00037  -0.00038  -0.00016   0.00046   0.00006   0.00978
 142  C 10  px       0.00008  -0.00001  -0.00017   0.00010   0.00013  -0.00269
 143  C 10  py      -0.00006  -0.00000  -0.00013   0.00007   0.00007  -0.00012
 144  C 10  pz       0.00009  -0.00032   0.00006   0.00008   0.00025  -0.00483
 145  C 11  s       -0.00007  -0.00017   0.00006  -0.00013  -0.00080   0.99549
 146  C 11  s       -0.00004  -0.00005   0.00001  -0.00001  -0.00006   0.03901
 147  C 11  px       0.00003  -0.00005   0.00000  -0.00000   0.00002   0.00003
 148  C 11  py       0.00001  -0.00003  -0.00001   0.00001   0.00000   0.00013
 149  C 11  pz      -0.00001   0.00000   0.00001   0.00000   0.00000  -0.00002
 150  C 11  s        0.00027  -0.00009   0.00004  -0.00012   0.00037  -0.04119
 151  C 11  px      -0.00017   0.00030   0.00007  -0.00005   0.00000  -0.00311
 152  C 11  py       0.00002  -0.00003   0.00003  -0.00000  -0.00005   0.00050
 153  C 11  pz      -0.00000  -0.00010  -0.00008   0.00006   0.00003   0.00000
 154  H 9   s        0.00000   0.00002   0.00002  -0.00001  -0.00001  -0.00027
 155  H 9   s       -0.00017   0.00032  -0.00017  -0.00011  -0.00005   0.00006
 156  H 10  s        0.00003  -0.00002  -0.00000   0.00003  -0.00001  -0.00043
 157  H 10  s       -0.00029   0.00026   0.00004  -0.00024   0.00005   0.00027
 158  H 11  s        0.00005  -0.00006  -0.00002   0.00003   0.00000  -0.00013
 159  H 11  s       -0.00035   0.00057   0.00008  -0.00005  -0.00009   0.00675
 160  H 12  s       -0.00000  -0.00001  -0.00001   0.00002  -0.00002  -0.00013
 161  H 12  s       -0.00020   0.00033   0.00012  -0.00010  -0.00007   0.00594
 162  H 13  s        0.00003  -0.00005  -0.00003   0.00004  -0.00001  -0.00042
 163  H 13  s       -0.00026   0.00036   0.00019   0.00001   0.00002   0.00020
 164  H 14  s       -0.00001  -0.00004  -0.00002   0.00000   0.00000  -0.00028
 165  H 14  s       -0.00018   0.00039   0.00001   0.00001  -0.00005   0.00008
 166  H 15  s        0.00001  -0.00001   0.00001   0.00001   0.00001  -0.00008
 167  H 15  s       -0.00002  -0.00005   0.00001  -0.00017   0.00002   0.00066
 168  H 16  s       -0.00001   0.00001   0.00004  -0.00001   0.00000  -0.00000
 169  H 16  s       -0.00006   0.00008  -0.00009  -0.00017  -0.00003  -0.00003
 170  H 17  s        0.00000   0.00001  -0.00000   0.00002  -0.00000   0.00002
 171  H 17  s       -0.00003  -0.00007  -0.00010  -0.00009   0.00004   0.00020
 172  H 18  s        0.00001  -0.00003  -0.00002  -0.00000   0.00001  -0.00004
 173  H 18  s       -0.00006   0.00023  -0.00008  -0.00010  -0.00006  -0.00040
 174  H 19  s        0.00001  -0.00002   0.00005  -0.00001   0.00000  -0.00005
 175  H 19  s       -0.00004   0.00013   0.00006  -0.00002  -0.00005   0.00006
 176  H 20  s       -0.00001   0.00004  -0.00004  -0.00001  -0.00000  -0.00001
 177  H 20  s       -0.00011   0.00029  -0.00014  -0.00009  -0.00004   0.00029
 178  H 21  s        0.00001  -0.00004   0.00001  -0.00001   0.00001  -0.00004
 179  H 21  s       -0.00000   0.00015   0.00006   0.00007  -0.00005   0.00004
 180  H 22  s        0.00001  -0.00003  -0.00001   0.00001   0.00001  -0.00004
 181  H 22  s       -0.00008   0.00026   0.00008   0.00006  -0.00007  -0.00036
 182  H 23  s       -0.00000   0.00003  -0.00001   0.00000   0.00000  -0.00001
 183  H 23  s       -0.00005   0.00031   0.00000   0.00002  -0.00004   0.00029
 184  H 24  s        0.00000  -0.00000  -0.00002  -0.00002   0.00000   0.00002
 185  H 24  s        0.00003   0.00008   0.00008   0.00005   0.00001   0.00018
 186  H 25  s       -0.00001  -0.00001  -0.00001  -0.00002   0.00001   0.00001
 187  H 25  s       -0.00003   0.00004   0.00004   0.00014  -0.00003  -0.00002
 188  H 26  s        0.00001  -0.00002  -0.00001  -0.00003   0.00002  -0.00008
 189  H 26  s       -0.00001   0.00002   0.00012   0.00002   0.00003   0.00065
 190  H 27  s        0.00001  -0.00030   0.00008  -0.00007   0.00043  -0.00001
 191  H 27  s        0.00007   0.00025  -0.00001  -0.00031  -0.00562   0.00009
 192  H 28  s       -0.00023  -0.00039   0.00005   0.00001   0.00023  -0.00001
 193  H 28  s        0.00019   0.00662  -0.00055  -0.00020  -0.00023   0.00005
 194  H 29  s       -0.00004  -0.00037   0.00002   0.00014   0.00050  -0.00001
 195  H 29  s        0.00042   0.00016   0.00021  -0.00111  -0.00627   0.00000
 196  C 12  s       -0.00017   0.01096   0.00133   0.00030  -0.99529  -0.00076
 197  C 12  s       -0.00002  -0.00078   0.00029   0.00013  -0.03751  -0.00002
 198  C 12  px      -0.00004  -0.00000   0.00004   0.00002  -0.00004  -0.00000
 199  C 12  py       0.00006   0.00039   0.00002  -0.00008  -0.00014   0.00001
 200  C 12  pz      -0.00002   0.00004   0.00010   0.00013  -0.00004  -0.00000
 201  C 12  s       -0.00007   0.00846  -0.00154  -0.00006   0.03429  -0.00002
 202  C 12  px      -0.00019   0.00041  -0.00003  -0.00004   0.00039   0.00007
 203  C 12  py      -0.00028  -0.00469   0.00048   0.00070  -0.00155  -0.00007
 204  C 12  pz       0.00014  -0.00037  -0.00017  -0.00083   0.00009  -0.00000
 205  H 30  s       -0.00039  -0.00006   0.00006  -0.00038  -0.00006   0.00003
 206  H 30  s        0.00044  -0.00101   0.00019   0.00606   0.00035  -0.00022
 207  C 13  s       -0.00316   0.99541  -0.00316   0.00518   0.01097   0.00018
 208  C 13  s       -0.00063   0.03861  -0.00025  -0.00013   0.00132  -0.00002
 209  C 13  px      -0.00018   0.00014   0.00013  -0.00018   0.00003   0.00003
 210  C 13  py       0.00007  -0.00017  -0.00011   0.00004   0.00058   0.00002
 211  C 13  pz       0.00002  -0.00000   0.00018  -0.00002   0.00005  -0.00001
 212  C 13  s        0.00163  -0.03770   0.00195   0.00018  -0.00678  -0.00007
 213  C 13  px       0.00120  -0.00077   0.00053  -0.00030   0.00066  -0.00015
 214  C 13  py      -0.00069  -0.00139   0.00111   0.00012  -0.00485  -0.00007
 215  C 13  pz       0.00004  -0.00050   0.00002   0.00019  -0.00009   0.00003
 216  H 31  s       -0.00019   0.00000   0.00000  -0.00004   0.00001   0.00006
 217  H 31  s        0.00013  -0.00017   0.00021   0.00023   0.00015  -0.00049
 218  H 32  s       -0.00039   0.00002  -0.00000  -0.00014  -0.00001   0.00007
 219  H 32  s        0.00041  -0.00013   0.00033  -0.00019   0.00021  -0.00058
 220  H 33  s       -0.00004  -0.00055  -0.00003  -0.00013   0.00027  -0.00000
 221  H 33  s        0.00031   0.00700   0.00039   0.00031  -0.00045   0.00004
 222  H 34  s        0.00000   0.00000  -0.00001   0.00001  -0.00000   0.00002
 223  H 34  s        0.00019  -0.00013   0.00004   0.00010   0.00004  -0.00014
 224  C 14  s        0.01106  -0.00508   0.02176   0.99515   0.00024   0.00013
 225  C 14  s       -0.00093  -0.00040   0.00089   0.03842  -0.00012  -0.00002
 226  C 14  px      -0.00032   0.00023  -0.00004  -0.00025   0.00013   0.00000
 227  C 14  py       0.00004   0.00002  -0.00005   0.00002   0.00002  -0.00002
 228  C 14  pz      -0.00019   0.00007   0.00014   0.00010  -0.00005  -0.00000
 229  C 14  s        0.00936  -0.00068   0.00014  -0.03653   0.00025   0.00015
 230  C 14  px       0.00490  -0.00060  -0.00105  -0.00095  -0.00125  -0.00002
 231  C 14  py      -0.00176  -0.00024   0.00039   0.00053   0.00003   0.00011
 232  C 14  pz       0.00145  -0.00124   0.00082  -0.00133   0.00057  -0.00001
 233  H 35  s       -0.00005   0.00000   0.00000  -0.00001   0.00001   0.00003
 234  H 35  s        0.00058  -0.00027  -0.00010  -0.00008   0.00005  -0.00019
 235  C 15  s       -0.00056  -0.00023  -0.00015  -0.00001   0.00017  -0.00013
 236  C 15  s       -0.00049  -0.00014  -0.00012   0.00001   0.00005  -0.00005
 237  C 15  px      -0.00001   0.00006  -0.00000  -0.00002  -0.00004  -0.00001
 238  C 15  py      -0.00018  -0.00002   0.00001  -0.00001   0.00002   0.00002
 239  C 15  pz       0.00003  -0.00002  -0.00003   0.00002  -0.00001   0.00001
 240  C 15  s        0.00140   0.00048   0.00072  -0.00043  -0.00003   0.00042
 241  C 15  px      -0.00023  -0.00047  -0.00003   0.00024   0.00027   0.00005
 242  C 15  py       0.00128   0.00010   0.00022  -0.00010  -0.00005  -0.00019
 243  C 15  pz      -0.00010   0.00016   0.00044  -0.00008   0.00011  -0.00008
 244  C 16  s       -0.00007  -0.00012  -0.00004  -0.00007   0.00010  -0.00001
 245  C 16  s       -0.00001  -0.00010  -0.00002  -0.00004   0.00006   0.00001
 246  C 16  px       0.00007  -0.00001   0.00001  -0.00000   0.00001  -0.00000
 247  C 16  py      -0.00007  -0.00001  -0.00000  -0.00003   0.00001   0.00000
 248  C 16  pz      -0.00002   0.00000   0.00001  -0.00000   0.00001   0.00001
 249  C 16  s       -0.00031   0.00056   0.00003   0.00002  -0.00033  -0.00005
 250  C 16  px      -0.00035   0.00001   0.00007   0.00006   0.00006   0.00018
 251  C 16  py      -0.00010   0.00009   0.00004   0.00017  -0.00004  -0.00004
 252  C 16  pz       0.00021  -0.00006  -0.00011   0.00005  -0.00005  -0.00003
 253  H 36  s       -0.00001  -0.00040   0.00008   0.00006   0.00048  -0.00001
 254  H 36  s        0.00001   0.00044   0.00033   0.00047  -0.00624   0.00008
 255  C 17  s        0.00488  -0.00000   0.00018  -0.00243   0.00028  -0.00011
 256  C 17  s       -0.00118   0.00003   0.00017  -0.00089   0.00008  -0.00000
 257  C 17  px       0.00005   0.00001   0.00008   0.00029   0.00002  -0.00001
 258  C 17  py      -0.00036  -0.00006  -0.00002  -0.00021   0.00000  -0.00000
 259  C 17  pz      -0.00015  -0.00000  -0.00003  -0.00002  -0.00000   0.00002
 260  C 17  s        0.00973  -0.00027  -0.00149   0.00172  -0.00050   0.00009
 261  C 17  px      -0.00153   0.00043  -0.00007  -0.00087  -0.00015   0.00009
 262  C 17  py       0.00542   0.00003  -0.00038   0.00069  -0.00002   0.00002
 263  C 17  pz       0.00082  -0.00018   0.00005   0.00026   0.00010  -0.00027
 264  H 37  s       -0.00027   0.00000  -0.00017  -0.00033  -0.00019   0.00000
 265  H 37  s        0.00002  -0.00014   0.00059   0.00623   0.00084  -0.00019
 266  P 3   s       -0.00032  -0.00011   0.00017  -0.00015   0.00020  -0.00001
 267  P 3   s        0.00058   0.00431  -0.00413   0.00484   0.00023   0.00037
 268  P 3   px      -0.00069  -0.00021   0.00010   0.00046  -0.00027  -0.00001
 269  P 3   py      -0.00008  -0.00032   0.00018  -0.00017   0.00083  -0.00001
 270  P 3   pz       0.00004  -0.00037  -0.00051  -0.00030  -0.00009   0.00003
 271  P 3   px       0.00241  -0.00417  -0.00189   0.00384   0.00041  -0.00031
 272  P 3   py      -0.00059   0.00597  -0.00596   0.00355  -0.00361  -0.00022
 273  P 3   pz       0.00092  -0.00134  -0.00297  -0.00259   0.00105  -0.00017
 274  C 18  s        0.99549   0.00313   0.00032  -0.01111  -0.00014   0.00007
 275  C 18  s        0.03912  -0.00039  -0.00030  -0.00160  -0.00000  -0.00003
 276  C 18  px      -0.00007   0.00014  -0.00006   0.00045  -0.00007  -0.00001
 277  C 18  py      -0.00004   0.00003   0.00000  -0.00006  -0.00000  -0.00002
 278  C 18  pz       0.00018  -0.00007   0.00009   0.00012   0.00005   0.00001
 279  C 18  s       -0.04169   0.00171   0.00181   0.00806   0.00062   0.00017
 280  C 18  px       0.00221  -0.00121  -0.00004  -0.00471   0.00005   0.00010
 281  C 18  py       0.00226   0.00004  -0.00027   0.00184   0.00011   0.00010
 282  C 18  pz       0.00004   0.00057  -0.00061  -0.00080  -0.00061   0.00004
 283  H 38  s       -0.00009   0.00001  -0.00010  -0.00021  -0.00006   0.00002
 284  H 38  s        0.00558   0.00027  -0.00029   0.00030  -0.00024  -0.00028
 285  H 39  s       -0.00027  -0.00002   0.00005  -0.00008   0.00002   0.00003
 286  H 39  s        0.00016  -0.00020   0.00028   0.00091   0.00018  -0.00029
 287  H 40  s       -0.00003  -0.00001  -0.00008   0.00003  -0.00002   0.00003
 288  H 40  s        0.00051  -0.00029   0.00007   0.00014   0.00015  -0.00039
 289  P 4   s       -0.00028  -0.00007  -0.00006  -0.00006   0.00003   0.00006
 290  P 4   s        0.00031  -0.00058  -0.00023   0.00009  -0.00011  -0.00092
 291  P 4   px      -0.00023   0.00022   0.00011   0.00016  -0.00008  -0.00006
 292  P 4   py      -0.00064  -0.00013  -0.00034   0.00001  -0.00004  -0.00000
 293  P 4   pz       0.00004  -0.00000   0.00009   0.00029   0.00002   0.00001
 294  P 4   px       0.00029  -0.00026  -0.00053  -0.00106   0.00041   0.00047
 295  P 4   py       0.00235   0.00045   0.00178  -0.00134   0.00039   0.00019
 296  P 4   pz       0.00093  -0.00016  -0.00046  -0.00091  -0.00018  -0.00005
 297  H 41  s       -0.00001   0.00002   0.00003  -0.00001   0.00001   0.00002
 298  H 41  s        0.00005  -0.00021  -0.00004  -0.00003   0.00012  -0.00013
 299  H 42  s       -0.00024  -0.00017   0.00012  -0.00031   0.00004   0.00003
 300  H 42  s        0.00757  -0.00041  -0.00013  -0.00005   0.00025  -0.00034
 301  H 43  s       -0.00000   0.00014   0.00036   0.00001   0.00003  -0.00001
 302  H 43  s       -0.00004  -0.00041  -0.00017  -0.00049   0.00026  -0.00012
 303  C 19  s        0.00062  -0.00321  -0.99520   0.02180  -0.00134   0.00007
 304  C 19  s        0.00020  -0.00010  -0.03849   0.00084   0.00006  -0.00001
 305  C 19  px       0.00011   0.00007   0.00012  -0.00011  -0.00007   0.00002
 306  C 19  py      -0.00002   0.00009   0.00015   0.00007   0.00004   0.00003
 307  C 19  pz      -0.00008   0.00021   0.00006   0.00020  -0.00006  -0.00001
 308  C 19  s       -0.00030  -0.00102   0.03716  -0.00221  -0.00001   0.00001
 309  C 19  px      -0.00090   0.00089   0.00059   0.00003   0.00022  -0.00012
 310  C 19  py       0.00039  -0.00001   0.00123  -0.00077   0.00018  -0.00026
 311  C 19  pz       0.00057   0.00025  -0.00065   0.00045  -0.00058   0.00003
 312  C 20  s        0.00004   0.00078  -0.00898  -0.00126   0.00039  -0.00041
 313  C 20  s       -0.00002   0.00036   0.00089  -0.00045   0.00000  -0.00008
 314  C 20  px      -0.00003  -0.00007  -0.00018  -0.00004  -0.00002   0.00001
 315  C 20  py      -0.00009  -0.00012  -0.00035   0.00009  -0.00002  -0.00001
 316  C 20  pz       0.00000  -0.00011   0.00004   0.00013  -0.00009   0.00001
 317  C 20  s        0.00077  -0.00057  -0.00860   0.00172  -0.00007   0.00040
 318  C 20  px       0.00060   0.00006   0.00220  -0.00013   0.00009  -0.00007
 319  C 20  py       0.00012   0.00072   0.00407  -0.00058   0.00007  -0.00004
 320  C 20  pz      -0.00016   0.00058  -0.00007  -0.00032   0.00031  -0.00008
 321  H 44  s       -0.00011  -0.00009   0.00046  -0.00001  -0.00010  -0.00002
 322  H 44  s       -0.00041   0.00074  -0.00678   0.00064   0.00086  -0.00002
 323  H 45  s        0.00005   0.00008   0.00037  -0.00012   0.00001   0.00001
 324  H 45  s       -0.00124   0.00023  -0.00018  -0.00034  -0.00003  -0.00014
 325  C 21  s        0.00047  -0.00006   0.00061  -0.00040   0.00008  -0.00010
 326  C 21  s        0.00034  -0.00005   0.00030  -0.00024   0.00003  -0.00003
 327  C 21  px      -0.00001  -0.00002  -0.00008   0.00004   0.00002  -0.00004
 328  C 21  py       0.00016   0.00005   0.00003   0.00001  -0.00001   0.00001
 329  C 21  pz      -0.00009  -0.00002   0.00013   0.00003   0.00001  -0.00002
 330  C 21  s       -0.00087   0.00048  -0.00106   0.00096  -0.00019   0.00040
 331  C 21  px       0.00018   0.00004   0.00062  -0.00043  -0.00008   0.00016
 332  C 21  py      -0.00112  -0.00035  -0.00059   0.00017   0.00002  -0.00007
 333  C 21  pz       0.00048   0.00015  -0.00091  -0.00041  -0.00010   0.00026
 334  H 46  s       -0.00000   0.00001   0.00003   0.00002   0.00000   0.00001
 335  H 46  s        0.00011  -0.00006   0.00002  -0.00018   0.00003  -0.00013
 336  H 47  s        0.00019  -0.00003   0.00046   0.00011   0.00006  -0.00001
 337  H 47  s       -0.00018  -0.00006  -0.00658  -0.00061   0.00015  -0.00015
 338  C 22  s       -0.00000  -0.00008   0.00016  -0.00006   0.00009  -0.00004
 339  C 22  s       -0.00007  -0.00005   0.00009  -0.00003   0.00003  -0.00000
 340  C 22  px      -0.00010   0.00001  -0.00003   0.00003  -0.00001  -0.00000
 341  C 22  py      -0.00004  -0.00001   0.00002   0.00004   0.00000   0.00000
 342  C 22  pz      -0.00004   0.00001   0.00000   0.00002  -0.00001  -0.00000
 343  C 22  s        0.00099   0.00015  -0.00018  -0.00001  -0.00002  -0.00003
 344  C 22  px       0.00006  -0.00001   0.00008  -0.00009  -0.00002   0.00017
 345  C 22  py       0.00066   0.00019   0.00007  -0.00033  -0.00007   0.00009
 346  C 22  pz       0.00004  -0.00005   0.00023  -0.00002   0.00009  -0.00000
 347  H 48  s        0.00008  -0.00001   0.00001  -0.00005   0.00000   0.00003
 348  H 48  s       -0.00118  -0.00022   0.00001   0.00043   0.00009  -0.00023
 349  H 49  s       -0.00010   0.00001   0.00007   0.00001  -0.00001   0.00006
 350  H 49  s       -0.00031  -0.00051   0.00004  -0.00009   0.00018  -0.00053
 351  H 50  s        0.00017   0.00010  -0.00017  -0.00006  -0.00003   0.00009
 352  H 50  s        0.00016  -0.00051   0.00176  -0.00009   0.00024  -0.00058
 353  H 51  s       -0.00005  -0.00001   0.00030  -0.00008  -0.00002   0.00000
 354  H 51  s       -0.00000  -0.00043  -0.00016   0.00014  -0.00019  -0.00004
 355  H 52  s       -0.00007   0.00003   0.00001   0.00001  -0.00002   0.00003
 356  H 52  s       -0.00010  -0.00014  -0.00015   0.00002   0.00000  -0.00016
 357  H 53  s       -0.00004  -0.00018   0.00013  -0.00007   0.00011   0.00012
 358  H 53  s       -0.00063   0.00229  -0.00188   0.00167  -0.00156  -0.00108
                         7         8         9        10        11        12
 eigenvalues:        -10.174   -10.172   -10.172   -10.169   -10.169   -10.168
   1  P 1   s        0.00018  -0.00004  -0.00001  -0.00003   0.00009   0.00023
   2  P 1   s       -0.00424   0.00010   0.00010   0.00005  -0.00090   0.00042
   3  P 1   px      -0.00012  -0.00007  -0.00013  -0.00011   0.00006  -0.00055
   4  P 1   py      -0.00051  -0.00009   0.00012  -0.00013   0.00006   0.00006
   5  P 1   pz       0.00008   0.00002  -0.00012   0.00002  -0.00014   0.00040
   6  P 1   px       0.00536   0.00041   0.00072   0.00073  -0.00068   0.00065
   7  P 1   py      -0.00247  -0.00005  -0.00088   0.00149  -0.00061  -0.00063
   8  P 1   pz      -0.00359  -0.00017   0.00109  -0.00033   0.00113  -0.00157
   9  Co    s       -0.00060   0.00012  -0.00026   0.00054  -0.00045  -0.00018
  10  Co    s       -0.00085   0.00021  -0.00034   0.00076  -0.00063  -0.00029
  11  Co    s       -0.00093   0.00012  -0.00017  -0.00012  -0.00199  -0.00061
  12  Co    px       0.00003  -0.00001   0.00004  -0.00005   0.00000  -0.00001
  13  Co    py      -0.00002  -0.00001  -0.00003   0.00002  -0.00004   0.00000
  14  Co    pz      -0.00000  -0.00001   0.00002  -0.00002  -0.00002  -0.00001
  15  Co    px       0.00060   0.00050  -0.00298  -0.00052  -0.00360   0.00107
  16  Co    py       0.00193   0.00276   0.00159  -0.00456   0.00207   0.00039
  17  Co    pz      -0.00339  -0.00039  -0.00077  -0.00203   0.00217  -0.00099
  18  Co    px      -0.00027  -0.00046   0.00113   0.00048   0.00125  -0.00099
  19  Co    py       0.00025  -0.00052  -0.00012  -0.00002  -0.00025  -0.00012
  20  Co    pz       0.00081  -0.00020  -0.00099   0.00088   0.00073   0.00038
  21  Co    d 1      0.00003  -0.00001  -0.00004  -0.00004  -0.00003   0.00001
  22  Co    d 2     -0.00006  -0.00000  -0.00002  -0.00006  -0.00000  -0.00001
  23  Co    d 3      0.00003   0.00000  -0.00002   0.00000  -0.00000  -0.00000
  24  Co    d 4      0.00001   0.00001   0.00002   0.00001  -0.00004  -0.00001
  25  Co    d 5     -0.00005   0.00000  -0.00004   0.00005  -0.00001  -0.00000
  26  Co    d 1     -0.00016   0.00008   0.00031   0.00026   0.00021  -0.00006
  27  Co    d 2      0.00037  -0.00003   0.00005   0.00042   0.00001   0.00006
  28  Co    d 3     -0.00025  -0.00006   0.00015   0.00004   0.00014  -0.00002
  29  Co    d 4      0.00001  -0.00004  -0.00020   0.00006   0.00030   0.00013
  30  Co    d 5      0.00023  -0.00006   0.00021  -0.00025   0.00004   0.00001
  31  C 1   s        0.00155   0.00015   0.00043  -0.00113   0.00230  -0.00665
  32  C 1   s        0.00023   0.00004   0.00016  -0.00019   0.00038  -0.00055
  33  C 1   px      -0.00013  -0.00001  -0.00003   0.00001  -0.00006   0.00003
  34  C 1   py       0.00014   0.00001  -0.00002   0.00005   0.00000  -0.00008
  35  C 1   pz      -0.00012   0.00000   0.00002   0.00000   0.00011  -0.00002
  36  C 1   s        0.00034  -0.00019  -0.00100   0.00077  -0.00164   0.00128
  37  C 1   px      -0.00058  -0.00001   0.00026  -0.00009   0.00030  -0.00022
  38  C 1   py      -0.00009  -0.00004   0.00011  -0.00046  -0.00008   0.00049
  39  C 1   pz       0.00034  -0.00003   0.00014  -0.00010  -0.00058   0.00036
  40  C 2   s       -0.99538   0.00126   0.00018  -0.00036   0.00000   0.01079
  41  C 2   s       -0.03847  -0.00005  -0.00003   0.00007   0.00000   0.00144
  42  C 2   px      -0.00010  -0.00004   0.00002   0.00002  -0.00001  -0.00047
  43  C 2   py      -0.00004  -0.00001   0.00001   0.00003  -0.00002  -0.00019
  44  C 2   pz       0.00011   0.00000   0.00004  -0.00002  -0.00002   0.00028
  45  C 2   s        0.03732   0.00025   0.00017  -0.00047   0.00003  -0.00750
  46  C 2   px      -0.00156   0.00021  -0.00008  -0.00029   0.00006   0.00429
  47  C 2   py      -0.00089   0.00001  -0.00022  -0.00021   0.00014   0.00109
  48  C 2   pz       0.00023  -0.00004  -0.00042   0.00032   0.00007  -0.00224
  49  C 3   s       -0.00035  -0.00050  -0.00090   0.99534   0.00466   0.00009
  50  C 3   s       -0.00010  -0.00010  -0.00016   0.03854   0.00014  -0.00000
  51  C 3   px      -0.00001   0.00001   0.00002   0.00010   0.00003  -0.00002
  52  C 3   py      -0.00003   0.00000  -0.00001   0.00009  -0.00000  -0.00002
  53  C 3   pz      -0.00001   0.00001  -0.00001   0.00010  -0.00005  -0.00001
  54  C 3   s        0.00047   0.00050   0.00068  -0.03760  -0.00016   0.00005
  55  C 3   px       0.00024   0.00003  -0.00008   0.00156  -0.00034   0.00016
  56  C 3   py       0.00029  -0.00002   0.00003   0.00073  -0.00011   0.00013
  57  C 3   pz       0.00018   0.00002   0.00024  -0.00039   0.00048   0.00009
  58  P 2   s        0.00001  -0.00001   0.00001  -0.00019  -0.00005   0.00000
  59  P 2   s        0.00001   0.00016  -0.00061   0.00432   0.00070   0.00020
  60  P 2   px       0.00012  -0.00002  -0.00014   0.00012  -0.00018   0.00001
  61  P 2   py       0.00010   0.00005   0.00012   0.00044  -0.00001   0.00004
  62  P 2   pz      -0.00006  -0.00003   0.00004  -0.00018   0.00013   0.00002
  63  P 2   px      -0.00083   0.00024   0.00043  -0.00555   0.00137  -0.00008
  64  P 2   py      -0.00110  -0.00034  -0.00114   0.00128  -0.00019  -0.00035
  65  P 2   pz       0.00041   0.00044  -0.00049  -0.00417  -0.00086   0.00009
  66  C 4   s        0.00016  -0.00013   0.00040  -0.00226   0.00052   0.00017
  67  C 4   s        0.00009  -0.00004   0.00016  -0.00021   0.00018   0.00004
  68  C 4   px       0.00000  -0.00001   0.00001   0.00013  -0.00003   0.00003
  69  C 4   py      -0.00004  -0.00002  -0.00001  -0.00019  -0.00001   0.00001
  70  C 4   pz       0.00002  -0.00000  -0.00003  -0.00006  -0.00007  -0.00000
  71  C 4   s       -0.00041   0.00011  -0.00068  -0.00051  -0.00118  -0.00022
  72  C 4   px       0.00001   0.00011   0.00015   0.00054   0.00022  -0.00013
  73  C 4   py       0.00034   0.00012  -0.00006   0.00029  -0.00016  -0.00008
  74  C 4   pz      -0.00020  -0.00003  -0.00007   0.00040   0.00029  -0.00005
  75  C 5   s        0.00044  -0.00012   0.00006  -0.00174  -0.00034  -0.00023
  76  C 5   s        0.00027  -0.00005   0.00002  -0.00023  -0.00014  -0.00010
  77  C 5   px       0.00001  -0.00001   0.00003  -0.00001   0.00001   0.00002
  78  C 5   py      -0.00002  -0.00001  -0.00002  -0.00017  -0.00003   0.00002
  79  C 5   pz      -0.00008  -0.00001  -0.00002   0.00006  -0.00000   0.00000
  80  C 5   s       -0.00168   0.00011  -0.00008  -0.00010   0.00061   0.00099
  81  C 5   px      -0.00013  -0.00001  -0.00030  -0.00052  -0.00005  -0.00055
  82  C 5   py      -0.00014  -0.00001   0.00018  -0.00010   0.00045   0.00003
  83  C 5   pz       0.00004   0.00007   0.00015   0.00122  -0.00001   0.00050
  84  C 6   s        0.00007  -0.00006  -0.00003  -0.00043  -0.00004   0.00008
  85  C 6   s        0.00003  -0.00003  -0.00003  -0.00006  -0.00005   0.00003
  86  C 6   px      -0.00000   0.00001   0.00000   0.00002   0.00002   0.00000
  87  C 6   py       0.00002  -0.00000   0.00002  -0.00007  -0.00000  -0.00000
  88  C 6   pz       0.00001  -0.00000   0.00001   0.00002   0.00002  -0.00000
  89  C 6   s       -0.00001   0.00014   0.00024   0.00043   0.00043  -0.00014
  90  C 6   px       0.00007  -0.00004   0.00007   0.00032   0.00007  -0.00002
  91  C 6   py      -0.00014  -0.00001  -0.00005   0.00026   0.00026   0.00001
  92  C 6   pz       0.00012   0.00003   0.00001  -0.00002   0.00012  -0.00002
  93  H 1   s        0.00001   0.00002   0.00006  -0.00008  -0.00005  -0.00001
  94  H 1   s        0.00044  -0.00008  -0.00017   0.00037   0.00027   0.00011
  95  H 2   s       -0.00007  -0.00000   0.00002   0.00007  -0.00003  -0.00002
  96  H 2   s        0.00021  -0.00017  -0.00015  -0.00044   0.00049   0.00026
  97  C 7   s       -0.00001  -0.00008   0.00007   0.01675   0.00020  -0.00023
  98  C 7   s       -0.00001  -0.00002   0.00004  -0.00063   0.00003  -0.00005
  99  C 7   px       0.00001  -0.00001  -0.00001  -0.00038  -0.00002   0.00001
 100  C 7   py      -0.00003  -0.00000  -0.00002  -0.00012  -0.00001   0.00000
 101  C 7   pz      -0.00000  -0.00001   0.00001  -0.00010  -0.00001   0.00001
 102  C 7   s        0.00012  -0.00002  -0.00025   0.00850  -0.00025   0.00029
 103  C 7   px       0.00004  -0.00006  -0.00001   0.00430   0.00013   0.00001
 104  C 7   py       0.00015  -0.00001   0.00002   0.00148  -0.00005   0.00001
 105  C 7   pz       0.00003   0.00003  -0.00014   0.00153  -0.00011   0.00001
 106  H 3   s       -0.00006  -0.00001   0.00005  -0.00032  -0.00002  -0.00002
 107  H 3   s        0.00015  -0.00009  -0.00017   0.00591   0.00061   0.00003
 108  H 4   s        0.00008   0.00003  -0.00005  -0.00060  -0.00009   0.00002
 109  H 4   s       -0.00064  -0.00025  -0.00012   0.00781   0.00031  -0.00019
 110  H 5   s        0.00007  -0.00002  -0.00001   0.00002  -0.00005   0.00000
 111  H 5   s       -0.00027   0.00009   0.00032  -0.00060   0.00017   0.00012
 112  C 8   s        0.00009  -0.00003   0.00011  -0.00023   0.00012  -0.00009
 113  C 8   s       -0.00004  -0.00002   0.00002  -0.00004  -0.00004   0.00003
 114  C 8   px       0.00000   0.00001  -0.00000   0.00000   0.00004   0.00010
 115  C 8   py       0.00007  -0.00001   0.00000  -0.00001   0.00003  -0.00004
 116  C 8   pz       0.00001   0.00000  -0.00002   0.00003  -0.00005   0.00006
 117  C 8   s       -0.00009   0.00008   0.00007  -0.00005   0.00085  -0.00095
 118  C 8   px      -0.00037  -0.00003   0.00011  -0.00010   0.00019  -0.00062
 119  C 8   py      -0.00024   0.00007  -0.00001   0.00017  -0.00001  -0.00007
 120  C 8   pz      -0.00004  -0.00005  -0.00013   0.00006  -0.00018  -0.00019
 121  H 6   s       -0.00008  -0.00001  -0.00000   0.00006  -0.00015  -0.00010
 122  H 6   s        0.00061   0.00012   0.00007  -0.00015   0.00086  -0.00024
 123  H 7   s        0.00057  -0.00001  -0.00009  -0.00006  -0.00004   0.00027
 124  H 7   s       -0.00733  -0.00010   0.00019   0.00061   0.00021  -0.00062
 125  H 8   s        0.00037  -0.00001  -0.00001   0.00006   0.00005   0.00026
 126  H 8   s       -0.00612  -0.00011   0.00040  -0.00009  -0.00026  -0.00039
 127  C 9   s       -0.01076  -0.00027   0.00018   0.00008   0.00076  -0.99526
 128  C 9   s        0.00085  -0.00006   0.00004   0.00002   0.00008  -0.03760
 129  C 9   px       0.00037  -0.00001  -0.00000  -0.00001   0.00001   0.00017
 130  C 9   py       0.00007   0.00000  -0.00001   0.00002  -0.00003   0.00015
 131  C 9   pz      -0.00015   0.00001  -0.00000  -0.00001  -0.00001  -0.00004
 132  C 9   s       -0.00870   0.00021  -0.00015  -0.00020  -0.00018   0.03473
 133  C 9   px      -0.00426   0.00007   0.00011  -0.00005  -0.00001   0.00136
 134  C 9   py      -0.00073  -0.00002   0.00009  -0.00011   0.00012  -0.00037
 135  C 9   pz       0.00208  -0.00008   0.00011   0.00006   0.00002  -0.00081
 136  C 10  s        0.00106  -0.00032   0.00007  -0.00088   0.00018   0.00398
 137  C 10  s        0.00016  -0.00011   0.00002  -0.00030   0.00005   0.00054
 138  C 10  px       0.00002  -0.00002   0.00002  -0.00002   0.00002  -0.00004
 139  C 10  py       0.00017  -0.00001  -0.00001  -0.00001   0.00002   0.00025
 140  C 10  pz      -0.00001   0.00002   0.00002  -0.00007   0.00002   0.00010
 141  C 10  s        0.00038   0.00034  -0.00016   0.00172  -0.00020  -0.00103
 142  C 10  px       0.00059   0.00013  -0.00028   0.00021  -0.00023   0.00049
 143  C 10  py       0.00065   0.00008   0.00020   0.00018  -0.00018  -0.00103
 144  C 10  pz       0.00102  -0.00010  -0.00024   0.00000  -0.00025   0.00020
 145  C 11  s        0.00936   0.00040  -0.00011  -0.00125  -0.00009   0.00015
 146  C 11  s       -0.00008  -0.00002   0.00004   0.00039   0.00005  -0.00007
 147  C 11  px      -0.00007  -0.00002  -0.00005   0.00007  -0.00005   0.00007
 148  C 11  py      -0.00000  -0.00001  -0.00002   0.00001  -0.00001  -0.00009
 149  C 11  pz       0.00002  -0.00001   0.00000  -0.00000   0.00002  -0.00014
 150  C 11  s        0.00153  -0.00004  -0.00063  -0.00177  -0.00065  -0.00005
 151  C 11  px       0.00077  -0.00003   0.00024  -0.00078   0.00018  -0.00028
 152  C 11  py      -0.00010   0.00006   0.00010   0.00015   0.00004   0.00069
 153  C 11  pz       0.00020   0.00002   0.00001   0.00032  -0.00004   0.00138
 154  H 9   s       -0.00012   0.00000  -0.00002  -0.00006   0.00001   0.00024
 155  H 9   s        0.00049   0.00001   0.00016  -0.00017   0.00004  -0.00029
 156  H 10  s        0.00008   0.00000  -0.00003  -0.00001   0.00003   0.00000
 157  H 10  s       -0.00026  -0.00010   0.00040  -0.00037  -0.00004  -0.00067
 158  H 11  s       -0.00006   0.00001  -0.00005   0.00008  -0.00005  -0.00020
 159  H 11  s        0.00017  -0.00012   0.00040  -0.00008   0.00049   0.00019
 160  H 12  s       -0.00005   0.00002   0.00003   0.00003   0.00002  -0.00004
 161  H 12  s        0.00008  -0.00007   0.00032  -0.00003   0.00029  -0.00009
 162  H 13  s       -0.00000   0.00003   0.00001  -0.00009  -0.00003  -0.00002
 163  H 13  s        0.00040  -0.00018   0.00018   0.00031   0.00036  -0.00008
 164  H 14  s        0.00006   0.00001  -0.00001   0.00009  -0.00004  -0.00005
 165  H 14  s        0.00020  -0.00006   0.00003  -0.00044   0.00014  -0.00014
 166  H 15  s       -0.00004   0.00000  -0.00003   0.00000  -0.00002  -0.00015
 167  H 15  s       -0.00027  -0.00003   0.00016   0.00004  -0.00009   0.00023
 168  H 16  s        0.00004  -0.00002  -0.00002  -0.00000  -0.00002  -0.00003
 169  H 16  s        0.00004  -0.00002   0.00015  -0.00017  -0.00004   0.00051
 170  H 17  s        0.00005   0.00000  -0.00001   0.00003  -0.00001   0.00012
 171  H 17  s        0.00001   0.00004   0.00004  -0.00002  -0.00019   0.00030
 172  H 18  s        0.00039  -0.00001  -0.00000   0.00001  -0.00001   0.00044
 173  H 18  s       -0.00033  -0.00007   0.00025  -0.00001   0.00019  -0.00644
 174  H 19  s        0.00029  -0.00001  -0.00003   0.00002  -0.00001   0.00044
 175  H 19  s       -0.00026   0.00003   0.00010   0.00003   0.00000  -0.00555
 176  H 20  s        0.00039  -0.00000  -0.00000  -0.00001   0.00002   0.00049
 177  H 20  s       -0.00013  -0.00001   0.00006  -0.00004   0.00005  -0.00655
 178  H 21  s       -0.00002   0.00000  -0.00000  -0.00029  -0.00001  -0.00001
 179  H 21  s       -0.00002  -0.00001  -0.00001   0.00031   0.00015  -0.00006
 180  H 22  s       -0.00001   0.00001   0.00001  -0.00040  -0.00001   0.00002
 181  H 22  s        0.00002  -0.00009   0.00016   0.00041   0.00028  -0.00016
 182  H 23  s        0.00001   0.00001   0.00001  -0.00040  -0.00001  -0.00001
 183  H 23  s        0.00009  -0.00002   0.00001   0.00014   0.00003  -0.00004
 184  H 24  s       -0.00002   0.00001   0.00000  -0.00006  -0.00001   0.00000
 185  H 24  s        0.00004  -0.00004  -0.00016   0.00004   0.00006   0.00004
 186  H 25  s        0.00000  -0.00000   0.00000  -0.00006  -0.00004   0.00000
 187  H 25  s        0.00018  -0.00004  -0.00004  -0.00009  -0.00001   0.00002
 188  H 26  s        0.00000   0.00000  -0.00001   0.00003  -0.00003   0.00001
 189  H 26  s       -0.00004  -0.00011  -0.00003   0.00014   0.00012   0.00001
 190  H 27  s       -0.00000  -0.00013  -0.00001  -0.00004  -0.00003  -0.00000
 191  H 27  s       -0.00018  -0.00028   0.00003   0.00000   0.00007  -0.00005
 192  H 28  s        0.00008   0.00002   0.00001   0.00013  -0.00002   0.00000
 193  H 28  s        0.00059   0.00003  -0.00003  -0.00035   0.00050   0.00006
 194  H 29  s        0.00001   0.00015  -0.00001   0.00003   0.00000  -0.00001
 195  H 29  s       -0.00011  -0.00070   0.00020   0.00027  -0.00001  -0.00001
 196  C 12  s       -0.00284   0.00040  -0.00027   0.00047  -0.00008  -0.00001
 197  C 12  s        0.00001  -0.00005   0.00002  -0.00002   0.00001  -0.00000
 198  C 12  px      -0.00001   0.00006   0.00002   0.00003   0.00001  -0.00000
 199  C 12  py      -0.00006  -0.00001   0.00001   0.00012  -0.00000  -0.00001
 200  C 12  pz       0.00004   0.00008  -0.00001   0.00001   0.00001   0.00001
 201  C 12  s        0.00005   0.00119  -0.00003  -0.00095  -0.00005   0.00011
 202  C 12  px      -0.00014  -0.00035  -0.00010  -0.00036  -0.00001  -0.00001
 203  C 12  py       0.00011  -0.00033  -0.00017   0.00021   0.00002  -0.00002
 204  C 12  pz      -0.00033  -0.00046  -0.00001  -0.00007  -0.00012  -0.00006
 205  H 30  s        0.00000   0.00000   0.00016  -0.00000  -0.00001  -0.00000
 206  H 30  s        0.00005   0.00048   0.00016   0.00036   0.00059   0.00020
 207  C 13  s       -0.00058  -0.00075  -0.00004   0.00003  -0.00006  -0.00000
 208  C 13  s        0.00029   0.00036  -0.00002  -0.00005   0.00000   0.00001
 209  C 13  px      -0.00010   0.00001   0.00003  -0.00013   0.00002  -0.00002
 210  C 13  py       0.00002   0.00005   0.00002  -0.00023  -0.00001   0.00002
 211  C 13  pz      -0.00013   0.00005  -0.00000  -0.00013  -0.00003  -0.00001
 212  C 13  s       -0.00186  -0.00155   0.00040   0.00109   0.00014  -0.00013
 213  C 13  px       0.00084  -0.00016   0.00010   0.00061   0.00008   0.00011
 214  C 13  py       0.00027  -0.00057  -0.00035   0.00128  -0.00002  -0.00009
 215  C 13  pz       0.00027  -0.00029   0.00009   0.00052   0.00045   0.00007
 216  H 31  s       -0.00006  -0.00000  -0.00006  -0.00002   0.00007  -0.00003
 217  H 31  s        0.00013  -0.00002   0.00030   0.00015  -0.00050   0.00024
 218  H 32  s       -0.00006   0.00003   0.00036  -0.00003   0.00009  -0.00004
 219  H 32  s        0.00023   0.00008  -0.00615   0.00009  -0.00011   0.00032
 220  H 33  s       -0.00034   0.00007  -0.00005   0.00037  -0.00007  -0.00005
 221  H 33  s        0.00219   0.00004   0.00007  -0.00080   0.00028   0.00017
 222  H 34  s       -0.00002  -0.00000   0.00006   0.00001   0.00007  -0.00002
 223  H 34  s        0.00006  -0.00002   0.00016   0.00002  -0.00005   0.00006
 224  C 14  s       -0.00021   0.00141  -0.00224   0.00016  -0.00033  -0.00015
 225  C 14  s        0.00003  -0.00028   0.00070  -0.00013   0.00028   0.00006
 226  C 14  px      -0.00003   0.00004   0.00019   0.00001  -0.00003  -0.00001
 227  C 14  py      -0.00002  -0.00010  -0.00034  -0.00004   0.00005  -0.00002
 228  C 14  pz       0.00001  -0.00023   0.00007  -0.00003  -0.00004   0.00000
 229  C 14  s        0.00008   0.00063  -0.00147   0.00070  -0.00195  -0.00021
 230  C 14  px       0.00009   0.00053  -0.00074  -0.00029  -0.00020   0.00008
 231  C 14  py      -0.00001   0.00017   0.00111   0.00030   0.00019   0.00011
 232  C 14  pz      -0.00004   0.00079  -0.00040   0.00053   0.00000   0.00003
 233  H 35  s        0.00000  -0.00001  -0.00007   0.00003  -0.00003  -0.00001
 234  H 35  s        0.00011   0.00002   0.00077  -0.00001  -0.00007   0.00014
 235  C 15  s        0.00026   0.00003   0.00263  -0.00119   0.00599   0.00566
 236  C 15  s        0.00009   0.00002   0.00037  -0.00020   0.00032   0.00027
 237  C 15  px       0.00001   0.00003   0.00001  -0.00007  -0.00003  -0.00000
 238  C 15  py      -0.00004   0.00000   0.00015   0.00002   0.00015  -0.00001
 239  C 15  pz       0.00004  -0.00000   0.00003  -0.00002   0.00020   0.00001
 240  C 15  s       -0.00047  -0.00012  -0.00030   0.00114   0.00048  -0.00048
 241  C 15  px      -0.00007  -0.00018  -0.00006   0.00027   0.00083   0.00002
 242  C 15  py       0.00040  -0.00004   0.00035   0.00010   0.00015   0.00011
 243  C 15  pz      -0.00039  -0.00002  -0.00026   0.00031  -0.00019  -0.00007
 244  C 16  s        0.00000  -0.00003  -0.00011  -0.00001   0.00082   0.00033
 245  C 16  s       -0.00002  -0.00002  -0.00015   0.00003   0.00008   0.00003
 246  C 16  px      -0.00001  -0.00001   0.00004   0.00003  -0.00001   0.00000
 247  C 16  py       0.00000   0.00001   0.00000  -0.00000   0.00001   0.00001
 248  C 16  pz      -0.00000  -0.00000  -0.00014  -0.00001   0.00008   0.00000
 249  C 16  s        0.00019   0.00018   0.00040  -0.00041  -0.00048  -0.00002
 250  C 16  px      -0.00016  -0.00007  -0.00045   0.00018   0.00036  -0.00011
 251  C 16  py      -0.00006   0.00001   0.00008  -0.00007   0.00014  -0.00004
 252  C 16  pz       0.00013  -0.00001   0.00091   0.00000  -0.00007   0.00001
 253  H 36  s        0.00004   0.00001  -0.00001   0.00004   0.00003   0.00001
 254  H 36  s        0.00009  -0.00016   0.00010   0.00005   0.00006  -0.00001
 255  C 17  s       -0.00019  -0.00127  -0.99544  -0.00086  -0.00320  -0.00017
 256  C 17  s       -0.00006  -0.00003  -0.03842   0.00009  -0.00007   0.00002
 257  C 17  px       0.00000   0.00001   0.00005   0.00001  -0.00006   0.00000
 258  C 17  py       0.00001  -0.00001   0.00018   0.00002  -0.00003  -0.00000
 259  C 17  pz       0.00000  -0.00003  -0.00006   0.00001   0.00013  -0.00000
 260  C 17  s        0.00039  -0.00056   0.03657  -0.00071   0.00086  -0.00015
 261  C 17  px      -0.00021  -0.00008  -0.00082   0.00001   0.00021  -0.00007
 262  C 17  py      -0.00028  -0.00047   0.00106  -0.00036  -0.00116  -0.00004
 263  C 17  pz       0.00008   0.00012   0.00099  -0.00021   0.00083   0.00007
 264  H 37  s        0.00001  -0.00024   0.00005  -0.00007   0.00006  -0.00001
 265  H 37  s       -0.00003   0.00020  -0.00101  -0.00010   0.00022   0.00004
 266  P 3   s        0.00003  -0.00021   0.00002  -0.00006  -0.00003   0.00004
 267  P 3   s       -0.00053  -0.00062   0.00004   0.00100  -0.00019  -0.00002
 268  P 3   px       0.00009  -0.00024  -0.00006   0.00011  -0.00026  -0.00003
 269  P 3   py      -0.00012  -0.00071  -0.00010   0.00019   0.00009  -0.00002
 270  P 3   pz      -0.00006  -0.00012  -0.00030  -0.00001   0.00006   0.00007
 271  P 3   px      -0.00015  -0.00012   0.00149  -0.00078   0.00139   0.00014
 272  P 3   py       0.00075   0.00231   0.00038  -0.00217  -0.00020   0.00006
 273  P 3   pz       0.00066   0.00027   0.00097   0.00016  -0.00073  -0.00006
 274  C 18  s        0.00005  -0.00004   0.00497   0.00004   0.00042  -0.00002
 275  C 18  s       -0.00003   0.00007   0.00136  -0.00005  -0.00043   0.00000
 276  C 18  px      -0.00000  -0.00001   0.00001  -0.00001   0.00002  -0.00001
 277  C 18  py       0.00001   0.00015  -0.00048  -0.00002   0.00002   0.00001
 278  C 18  pz      -0.00001   0.00003  -0.00007   0.00002   0.00003  -0.00000
 279  C 18  s        0.00013  -0.00003  -0.00777   0.00052   0.00197   0.00004
 280  C 18  px       0.00007   0.00066  -0.00132   0.00016  -0.00043  -0.00001
 281  C 18  py      -0.00009  -0.00109   0.00494  -0.00024  -0.00040  -0.00011
 282  C 18  pz       0.00012  -0.00001   0.00017  -0.00020  -0.00037  -0.00001
 283  H 38  s       -0.00001   0.00006   0.00020  -0.00004  -0.00007  -0.00002
 284  H 38  s        0.00010   0.00012  -0.00040  -0.00008  -0.00010   0.00014
 285  H 39  s        0.00000   0.00003   0.00036   0.00004  -0.00014  -0.00000
 286  H 39  s        0.00007   0.00004  -0.00616   0.00003   0.00035   0.00014
 287  H 40  s       -0.00002   0.00001   0.00015   0.00007  -0.00007  -0.00002
 288  H 40  s        0.00058  -0.00009  -0.00039  -0.00046   0.00069   0.00031
 289  P 4   s       -0.00003  -0.00001   0.00015   0.00001   0.00019   0.00001
 290  P 4   s       -0.00001  -0.00013  -0.00458  -0.00026  -0.00409  -0.00005
 291  P 4   px       0.00005  -0.00000   0.00004   0.00000   0.00022  -0.00002
 292  P 4   py       0.00009   0.00004  -0.00041  -0.00023   0.00021   0.00002
 293  P 4   pz      -0.00023  -0.00001   0.00031  -0.00009  -0.00047  -0.00007
 294  P 4   px      -0.00000   0.00000  -0.00432  -0.00003  -0.00600   0.00029
 295  P 4   py      -0.00062  -0.00045  -0.00327   0.00151  -0.00156  -0.00020
 296  P 4   pz       0.00145   0.00018   0.00286   0.00059  -0.00357   0.00033
 297  H 41  s       -0.00002  -0.00001  -0.00006   0.00002   0.00007  -0.00001
 298  H 41  s       -0.00003   0.00000  -0.00067  -0.00004   0.00000   0.00008
 299  H 42  s        0.00000   0.00017   0.00028   0.00003   0.00002  -0.00001
 300  H 42  s       -0.00013  -0.00075   0.00007  -0.00006  -0.00008   0.00009
 301  H 43  s       -0.00001  -0.00050  -0.00001  -0.00006   0.00001   0.00001
 302  H 43  s       -0.00002   0.00665   0.00013   0.00003   0.00003   0.00003
 303  C 19  s       -0.00089  -0.00898  -0.00017   0.00022  -0.00057  -0.00021
 304  C 19  s        0.00019  -0.00135   0.00014  -0.00015   0.00028   0.00007
 305  C 19  px      -0.00001  -0.00027  -0.00001  -0.00004   0.00005  -0.00005
 306  C 19  py       0.00002  -0.00050   0.00000   0.00004  -0.00002  -0.00005
 307  C 19  pz      -0.00004   0.00009   0.00001   0.00003   0.00011   0.00002
 308  C 19  s       -0.00112   0.00732  -0.00087   0.00056  -0.00129  -0.00009
 309  C 19  px       0.00028   0.00240  -0.00017   0.00018  -0.00058   0.00018
 310  C 19  py      -0.00006   0.00412   0.00032  -0.00029   0.00032   0.00025
 311  C 19  pz       0.00020  -0.00013   0.00020  -0.00040  -0.00078  -0.00013
 312  C 20  s        0.00126   0.99532  -0.00127   0.00049  -0.00053  -0.00027
 313  C 20  s        0.00013   0.03766  -0.00005  -0.00004   0.00002   0.00005
 314  C 20  px      -0.00004   0.00013  -0.00004   0.00004  -0.00000   0.00000
 315  C 20  py      -0.00004   0.00017  -0.00003   0.00002  -0.00005  -0.00001
 316  C 20  pz       0.00002  -0.00010  -0.00002   0.00004   0.00000  -0.00001
 317  C 20  s       -0.00002  -0.03495   0.00026   0.00006   0.00019  -0.00032
 318  C 20  px       0.00001   0.00044   0.00033  -0.00021   0.00002   0.00001
 319  C 20  py       0.00005   0.00120   0.00003  -0.00004  -0.00005   0.00012
 320  C 20  pz      -0.00011   0.00060   0.00007  -0.00014   0.00021   0.00006
 321  H 44  s       -0.00003  -0.00025  -0.00003   0.00002   0.00002   0.00001
 322  H 44  s        0.00078   0.00043   0.00014   0.00008   0.00024   0.00007
 323  H 45  s        0.00000  -0.00050   0.00005   0.00001   0.00000   0.00001
 324  H 45  s       -0.00002   0.00680  -0.00054   0.00004  -0.00002   0.00011
 325  C 21  s        0.00000  -0.00053   0.00314   0.00467  -0.99521  -0.00074
 326  C 21  s        0.00004  -0.00008   0.00010   0.00023  -0.03838   0.00003
 327  C 21  px       0.00004   0.00001  -0.00007   0.00002   0.00020   0.00001
 328  C 21  py      -0.00002  -0.00003   0.00012   0.00004   0.00004  -0.00000
 329  C 21  pz      -0.00001  -0.00001  -0.00020   0.00002   0.00004   0.00000
 330  C 21  s       -0.00042   0.00016   0.00131  -0.00048   0.03673  -0.00036
 331  C 21  px      -0.00004  -0.00004   0.00093  -0.00008   0.00100  -0.00000
 332  C 21  py       0.00022   0.00022  -0.00009  -0.00047   0.00089   0.00004
 333  C 21  pz       0.00029   0.00008  -0.00028   0.00002  -0.00064   0.00001
 334  H 46  s       -0.00002   0.00000  -0.00007  -0.00001   0.00037  -0.00000
 335  H 46  s       -0.00003   0.00006   0.00066  -0.00002  -0.00032   0.00006
 336  H 47  s       -0.00008  -0.00028   0.00001  -0.00006  -0.00017   0.00001
 337  H 47  s        0.00024   0.00043   0.00027   0.00009   0.00167   0.00022
 338  C 22  s       -0.00005   0.00004   0.00180  -0.00009  -0.02170   0.00027
 339  C 22  s       -0.00003   0.00003   0.00042  -0.00005   0.00040   0.00003
 340  C 22  px      -0.00000   0.00003  -0.00006  -0.00002  -0.00041  -0.00001
 341  C 22  py       0.00000  -0.00000   0.00006   0.00001  -0.00015   0.00000
 342  C 22  pz       0.00000   0.00000  -0.00009   0.00000   0.00001  -0.00001
 343  C 22  s        0.00012  -0.00025  -0.00165   0.00037  -0.00787  -0.00004
 344  C 22  px      -0.00002  -0.00006   0.00050  -0.00009   0.00443  -0.00005
 345  C 22  py      -0.00009  -0.00007   0.00012   0.00003   0.00146  -0.00005
 346  C 22  pz      -0.00006  -0.00002   0.00013   0.00004   0.00023   0.00002
 347  H 48  s       -0.00001  -0.00003   0.00012  -0.00001   0.00039  -0.00001
 348  H 48  s        0.00003   0.00025   0.00017  -0.00011  -0.00045   0.00014
 349  H 49  s        0.00001  -0.00002   0.00001   0.00003   0.00035  -0.00001
 350  H 49  s        0.00008   0.00014  -0.00056  -0.00037  -0.00602   0.00018
 351  H 50  s        0.00005   0.00001  -0.00010   0.00002   0.00051  -0.00003
 352  H 50  s       -0.00031  -0.00020   0.00065   0.00016  -0.00700   0.00022
 353  H 51  s        0.00004  -0.00041  -0.00003   0.00002  -0.00000   0.00001
 354  H 51  s       -0.00004   0.00561  -0.00007   0.00006  -0.00014  -0.00001
 355  H 52  s        0.00001   0.00000   0.00011   0.00000   0.00031  -0.00001
 356  H 52  s       -0.00002   0.00009  -0.00008  -0.00013  -0.00038   0.00005
 357  H 53  s        0.00016  -0.00009   0.00020  -0.00009  -0.00005   0.00003
 358  H 53  s        0.00043   0.00112   0.00010  -0.00092   0.00117   0.00004
                        13        14        15        16        17        18
 eigenvalues:        -10.168   -10.167   -10.166   -10.166   -10.165   -10.165
   1  P 1   s       -0.00002   0.00015   0.00000   0.00001  -0.00015   0.00001
   2  P 1   s        0.00033  -0.00462  -0.00001   0.00022   0.00495   0.00033
   3  P 1   px       0.00006  -0.00045   0.00008   0.00003  -0.00028   0.00014
   4  P 1   py       0.00012   0.00017  -0.00001   0.00004  -0.00044  -0.00004
   5  P 1   pz       0.00009  -0.00010   0.00003  -0.00003  -0.00039   0.00007
   6  P 1   px      -0.00006  -0.00059  -0.00048  -0.00016  -0.00390  -0.00053
   7  P 1   py      -0.00097   0.00178   0.00014  -0.00033  -0.00317   0.00027
   8  P 1   pz      -0.00091  -0.00551  -0.00026  -0.00001   0.00101  -0.00081
   9  Co    s        0.00009  -0.00026   0.00021  -0.00017   0.00002   0.00031
  10  Co    s        0.00009  -0.00038   0.00035  -0.00028   0.00005   0.00050
  11  Co    s       -0.00037  -0.00064   0.00146  -0.00065   0.00142   0.00165
  12  Co    px       0.00002  -0.00001  -0.00001  -0.00001   0.00003  -0.00001
  13  Co    py      -0.00004   0.00002  -0.00000   0.00001   0.00001   0.00001
  14  Co    pz       0.00002  -0.00002  -0.00001   0.00001  -0.00004   0.00001
  15  Co    px       0.00214   0.00273   0.00215   0.00133  -0.00017   0.00335
  16  Co    py       0.00217  -0.00047  -0.00063   0.00077  -0.00036  -0.00076
  17  Co    pz       0.00010  -0.00096   0.00023   0.00071   0.00186  -0.00037
  18  Co    px      -0.00099   0.00088  -0.00104  -0.00096   0.00076  -0.00081
  19  Co    py       0.00150  -0.00044  -0.00011  -0.00032   0.00114   0.00056
  20  Co    pz       0.00029   0.00151  -0.00020  -0.00030  -0.00022   0.00021
  21  Co    d 1     -0.00002  -0.00001  -0.00000   0.00001  -0.00003   0.00002
  22  Co    d 2     -0.00001   0.00000   0.00002   0.00001  -0.00001  -0.00000
  23  Co    d 3      0.00002  -0.00002   0.00001  -0.00001  -0.00001   0.00002
  24  Co    d 4     -0.00001  -0.00001  -0.00000   0.00001  -0.00001  -0.00001
  25  Co    d 5     -0.00000   0.00003  -0.00001  -0.00000   0.00002  -0.00000
  26  Co    d 1      0.00017   0.00008  -0.00001  -0.00010   0.00003  -0.00012
  27  Co    d 2     -0.00001  -0.00002  -0.00010  -0.00008   0.00013  -0.00001
  28  Co    d 3     -0.00014   0.00011  -0.00009   0.00002   0.00008  -0.00018
  29  Co    d 4      0.00009   0.00017  -0.00004  -0.00011   0.00012   0.00004
  30  Co    d 5      0.00009  -0.00015   0.00008   0.00001  -0.00012   0.00012
  31  C 1   s       -0.00105  -0.99514   0.00059  -0.00038   0.00478   0.00055
  32  C 1   s       -0.00008  -0.03823  -0.00000   0.00001   0.00002  -0.00006
  33  C 1   px      -0.00001   0.00001  -0.00001   0.00002   0.00010   0.00001
  34  C 1   py      -0.00004  -0.00005  -0.00000   0.00001   0.00003  -0.00000
  35  C 1   pz      -0.00002   0.00018  -0.00001  -0.00000   0.00011  -0.00004
  36  C 1   s        0.00019   0.03602   0.00018  -0.00019  -0.00035   0.00059
  37  C 1   px      -0.00002  -0.00142   0.00002  -0.00011   0.00036  -0.00015
  38  C 1   py       0.00046  -0.00024   0.00004  -0.00000  -0.00006   0.00009
  39  C 1   pz       0.00009   0.00074  -0.00004   0.00006   0.00022   0.00004
  40  C 2   s        0.00018  -0.00164  -0.00005  -0.00000   0.00100  -0.00001
  41  C 2   s       -0.00009   0.00014   0.00004   0.00000   0.00001   0.00002
  42  C 2   px      -0.00004   0.00018  -0.00002  -0.00003   0.00001  -0.00002
  43  C 2   py       0.00000  -0.00022  -0.00000  -0.00001   0.00019  -0.00000
  44  C 2   pz      -0.00001   0.00003   0.00000   0.00001   0.00016  -0.00001
  45  C 2   s        0.00059   0.00038  -0.00021   0.00001  -0.00136  -0.00008
  46  C 2   px       0.00038   0.00031   0.00011   0.00018   0.00028   0.00015
  47  C 2   py      -0.00007   0.00014   0.00012   0.00009   0.00052   0.00013
  48  C 2   pz       0.00004  -0.00003   0.00004  -0.00012  -0.00083   0.00018
  49  C 3   s        0.00113  -0.00110   0.00019   0.01676   0.00087  -0.00013
  50  C 3   s       -0.00009   0.00012  -0.00001   0.00166  -0.00015   0.00002
  51  C 3   px       0.00000  -0.00001  -0.00001  -0.00046   0.00001  -0.00002
  52  C 3   py       0.00001   0.00001   0.00000  -0.00028   0.00001  -0.00000
  53  C 3   pz      -0.00003  -0.00002   0.00002  -0.00018  -0.00005   0.00002
  54  C 3   s        0.00072  -0.00100   0.00012  -0.00760   0.00067  -0.00007
  55  C 3   px       0.00019  -0.00007   0.00014   0.00427  -0.00013   0.00024
  56  C 3   py      -0.00019  -0.00005   0.00000   0.00184  -0.00012   0.00004
  57  C 3   pz       0.00032  -0.00007  -0.00016   0.00156   0.00043  -0.00021
  58  P 2   s       -0.00007  -0.00000  -0.00001   0.00023  -0.00004   0.00001
  59  P 2   s        0.00061   0.00047   0.00002   0.00043  -0.00027  -0.00008
  60  P 2   px      -0.00013   0.00020   0.00004  -0.00055  -0.00010   0.00009
  61  P 2   py       0.00007  -0.00009  -0.00003  -0.00008   0.00016  -0.00002
  62  P 2   pz      -0.00013   0.00006  -0.00009  -0.00039  -0.00017  -0.00009
  63  P 2   px       0.00101  -0.00082  -0.00015   0.00072   0.00115  -0.00070
  64  P 2   py      -0.00032   0.00105   0.00029   0.00004  -0.00021   0.00048
  65  P 2   pz       0.00123  -0.00005   0.00055   0.00179  -0.00019   0.00083
[...]
    45    1.444078407933e-01
    46   -2.161547773165e-01
    47    3.303566950420e-01
    48    9.684532772602e-02
    49   -6.018188388623e-03
    50   -2.499439283088e-02
    51    3.539629435637e-02
    52    8.768599277505e-03
    53    4.560281034610e-02
    54    5.529983558468e-01
    55   -2.078353350024e-01
    56   -1.518522867934e-02
    57   -2.530476185002e-01
    58    1.279777498311e-01
    59   -7.546699162527e-01
    60   -8.727392374187e-03
    61    9.774802642467e-02
    62   -3.994303654401e-02
    63    3.352518284827e-01
    64   -4.369762786295e-01
    65    1.457035234907e-02
    66   -1.243393272205e-03
    67    1.016354843824e-02
    68    1.794211852665e-02
    69    4.380663451044e-02
    70    8.233929373010e-02
    71    3.717515703847e-01
    72   -4.430291153011e-02
    73   -3.855737018056e-01
    74   -7.532443032481e-01
    75    8.148586681132e-03
    76    7.661910213356e-02
    77    5.859342924653e-02
    78    3.260394141111e-02
    79    3.700126201138e-02
    80   -7.274221695421e-02
    81   -4.383410601766e-01
    82   -2.664992359549e-01
    83   -2.593141165156e-01
    84    1.182207869761e-02
    85    6.060447558624e-02
    86   -2.918460361187e-02
    87   -1.837374934508e-02
    88   -2.883319812844e-02
    89   -7.160690515548e-01
    90   -1.920957533742e-01
    91   -1.358856683134e-01
    92   -1.360629770752e-01
    93    2.655094485400e-02
    94   -4.004954375838e-01
    95    4.713449216598e-02
    96   -6.283009411255e-01
    97    4.356764054058e-03
    98    6.855028971177e-03
    99   -2.646286644469e-02
   100    2.652362806232e-03
   101   -4.836570577604e-03
   102   -2.691298710501e-01
   103   -1.421198398938e-01
   104   -1.188403713192e-01
   105   -8.501019266638e-04
   106    1.371896806469e-02
   107   -4.188829837364e-01
   108    3.946703800555e-02
   109   -4.387949608908e-01
   110    6.155392766582e-02
   111   -7.911902820331e-01
   112    1.414696216160e-02
   113    8.637340787143e-02
   114   -3.493062272646e-02
   115    8.101329883806e-03
   116    1.701078989497e-02
   117   -7.097555443374e-01
   118   -1.170831765526e-01
   119   -9.320762289211e-02
   120    2.905165382532e-01
   121    4.191728225607e-02
   122   -5.304736198669e-01
   123    3.648266183919e-02
   124   -6.810137982490e-01
   125    6.264746500808e-03
   126   -3.798978713990e-01
   127    3.823458311872e-03
   128    1.320400837929e-02
   129   -8.605784556674e-03
   130   -4.537420568761e-03
   131   -5.735050297630e-04
   132   -1.390284018993e-01
   133   -1.160242327726e-01
   134   -4.405625761344e-02
   135    6.635050691741e-02
   136    8.701519794283e-03
   137    6.762090204866e-02
   138    3.939663949717e-02
   139    2.829874237904e-02
   140   -6.117342273434e-03
   141   -1.798214932673e-01
   142   -2.525867738936e-01
   143   -3.159105818058e-01
   144    4.182778429062e-02
   145    1.331855487115e-03
   146    2.074390763128e-02
   147    5.611338739384e-02
   148    2.395484170609e-02
   149   -1.914415604652e-02
   150    1.623560116174e-01
   151   -2.869577140102e-01
   152    6.222490651148e-02
   153    2.815415454800e-02
   154   -1.090453164414e-02
   155   -2.452826037441e-01
   156    1.419226276044e-02
   157   -4.690752335564e-01
   158    5.669899710476e-02
   159   -6.954204708823e-01
   160   -3.765779758745e-02
   161   -2.208060722050e-01
   162    4.493050146315e-02
   163   -3.826599998809e-01
   164   -6.576080482654e-02
   165   -3.498672319986e-01
   166    1.795459165763e-02
   167    8.714859133318e-03
   168    2.780150430212e-02
   169    8.175097775655e-03
   170    1.657539322962e-02
   171   -5.044617651965e-02
   172   -4.214249031993e-03
   173   -7.003761192992e-02
   174    1.384817878991e-02
   175   -7.625317487905e-02
   176    1.551264886126e-03
   177   -6.382087888772e-02
   178    1.951880674292e-02
   179    3.792143906248e-03
   180   -1.975296112444e-03
   181   -7.323290837014e-02
   182    2.479006605123e-03
   183   -3.650850451192e-02
   184    2.402739657075e-02
   185    5.057127366938e-02
   186    1.661322910279e-02
   187    4.271697038604e-02
   188    2.248112253772e-03
   189    2.102042878687e-02
   190    2.017968347431e-02
   191   -5.250209715167e-02
   192   -2.636994027852e-03
   193   -3.844147468467e-01
   194    9.730182591565e-03
   195   -6.771319246287e-02
   196    5.320732617321e-03
   197    1.344778392215e-02
   198   -1.566821366725e-03
   199    2.244335823325e-02
   200   -4.949804543732e-03
   201   -2.671634101668e-01
   202    2.005221481419e-02
   203    2.115803540657e-01
   204    6.133226524885e-02
   205    3.994988023728e-02
   206   -6.717614203378e-01
   207   -8.289982600269e-03
   208   -6.591903714064e-02
   209    1.894348583990e-02
   210   -4.258099652031e-02
   211    2.892559914072e-03
   212    6.289615997677e-01
   213   -2.696420165700e-01
   214    2.557378855199e-01
   215   -4.765717253455e-02
   216   -3.259920287880e-03
   217   -2.071700002430e-01
   218    3.447379717899e-02
   219   -4.062949599062e-01
   220    3.257878666594e-02
   221   -7.583553532610e-01
   222    1.268197375142e-02
   223    7.022575180756e-02
   224   -7.354928604984e-04
   225   -1.959247795967e-02
   226   -4.078113037093e-03
   227   -2.399440646415e-02
   228    1.819241672068e-02
   229    1.794339239961e-01
   230   -1.129633571011e-02
   231    1.341054399325e-01
   232   -2.887795405780e-01
   233    6.146960001011e-03
   234    2.915662299087e-02
   235   -3.417364692422e-03
   236   -1.017342172965e-02
   237   -5.062282261207e-02
   238    3.348787731956e-02
   239   -6.716857678557e-03
   240    3.651700773223e-01
   241    4.333910257298e-01
   242   -3.163275868545e-01
   243    2.655318410616e-02
   244    7.884213352435e-03
   245    3.132127312564e-02
   246    3.828353268977e-02
   247   -6.983630838719e-03
   248   -6.238595936796e-04
   249   -5.057431337969e-01
   250    1.672219086454e-01
   251    7.290532186923e-03
   252    1.898393442618e-02
   253    1.041452865043e-02
   254   -1.338466708138e-01
   255    2.378626978945e-04
   256    1.321605793672e-02
   257   -4.611964848132e-02
   258   -9.813499324305e-05
   259    8.718731861565e-03
   260    1.200793065104e-01
   261    2.835840716926e-01
   262   -7.195847159140e-02
   263   -8.906266856719e-02
   264   -2.361053276416e-02
   265   -2.142985757347e-01
   266    1.548480861080e-02
   267   -5.214322470322e-01
   268   -2.445977753417e-02
   269    8.753376640869e-02
   270   -2.519737517738e-02
   271    2.016695664193e-01
   272   -6.939858972337e-02
   273    8.327017788379e-02
   274    2.373313000977e-03
   275    2.288276870096e-02
   276   -2.043578316816e-02
   277   -2.206653359091e-02
   278    3.513754209283e-02
   279    4.943874795181e-02
   280    1.020415788567e-01
   281    1.028900619021e-01
   282   -1.129070650994e-01
   283   -2.416930200190e-02
   284   -1.716223166589e-01
   285   -4.913345464543e-02
   286   -1.857066679874e-01
   287    1.957422100192e-02
   288   -5.212774671158e-01
   289    1.179283278308e-01
   290   -5.295989551366e-01
   291    2.639137162420e-02
   292   -1.217396526609e-02
   293    4.611953709054e-02
   294   -2.349943444154e-01
   295    2.663033964721e-02
   296   -3.347526555988e-02
   297    3.277288886856e-04
   298    4.364553822166e-02
   299    2.257548171001e-02
   300   -2.117081741574e-01
   301    1.321776158998e-02
   302   -2.817134825299e-02
   303    2.559809345151e-04
   304    1.413609850815e-02
   305   -4.647221969680e-03
   306   -6.270670118327e-02
   307   -2.125885796556e-03
   308    3.462407938111e-01
   309    1.216641545839e-01
   310    3.695223841637e-01
   311    2.617456014834e-01
   312    4.834567822397e-03
   313    4.455236360486e-03
   314    4.973545883948e-03
   315    2.782980137160e-02
   316    2.473436646017e-03
   317   -2.923546318707e-01
   318    1.575730624269e-01
   319    1.253959199726e-01
   320   -3.099818899694e-02
   321   -3.843044193546e-03
   322   -3.577370662674e-01
   323   -3.866027189685e-03
   324   -1.047139523213e-01
   325   -2.067906905206e-03
   326    3.019469689748e-02
   327   -1.194198238443e-01
   328   -5.288205618825e-03
   329   -2.640545827417e-02
   330    5.274370810656e-01
   331    7.881472673210e-01
   332    8.520713350880e-02
   333    2.480549068894e-01
   334    1.913377748344e-02
   335    3.158096811849e-03
   336    8.105503474677e-02
   337   -8.561208213309e-01
   338    1.069619731533e-02
   339    4.509188542905e-02
   340    3.688849327772e-02
   341    1.423204907510e-02
   342    6.862654053930e-03
   343   -6.720793982663e-01
   344    2.912147066827e-01
   345    1.631655134290e-01
   346   -7.520271559335e-02
   347    1.045853424568e-02
   348   -7.578330879564e-02
   349    2.569967462057e-02
   350   -3.826154746595e-01
   351    7.072552685060e-02
   352   -5.877669559663e-01
   353    1.880239297950e-02
   354   -6.043056392994e-02
   355    3.144477595314e-02
   356    3.285302002870e-02
   357    4.908988904968e-03
   358   -2.062424156822e+00
Sym=X
Ene= 0.000697
Spin=Alpha
Occup=0
     1   -1.147768254441e-01
     2    8.049500109728e-01
     3   -5.433493849901e-02
     4    1.539995390652e-01
     5    1.052777804744e-01
     6    7.277033546773e-01
     7   -1.179778621351e+00
     8   -1.171012569327e+00
     9   -3.502894717855e-01
    10   -6.186459081402e-01
    11   -7.632170515695e-01
    12   -3.845758421952e-02
    13   -9.433162740364e-02
    14    2.308081920350e-02
    15    1.882802465176e+00
    16    5.783676279135e+00
    17   -1.284439655713e+00
    18   -2.086007119432e+00
    19   -2.569626295947e+00
    20    3.805531213813e-01
    21   -3.997797032061e-02
    22    2.677603130722e-02
    23   -5.596151813297e-02
    24   -7.563623621550e-02
    25   -6.118512120734e-02
    26    1.906168834198e-02
    27   -4.393316837726e-02
    28    1.269768714230e-01
    29    1.782110923932e-01
    30    1.236436441778e-01
    31   -2.763675147648e-03
    32   -3.289940771506e-02
    33   -1.772143817143e-02
    34   -3.786137200886e-02
    35    1.736483491630e-02
    36    1.813433233795e-02
    37    1.191582757258e-01
    38    2.967306617946e-01
    39   -5.397234003424e-02
    40   -1.366787776405e-02
    41   -1.107605819020e-01
    42   -4.711356658785e-03
    43    1.807640174121e-02
    44   -2.783827957134e-02
    45    6.012429698431e-01
    46    3.022514819232e-01
    47   -3.103998478081e-01
    48    6.323919261078e-02
    49   -1.275892657352e-02
    50   -1.140439526978e-01
    51    1.013402292763e-04
    52    1.776482107237e-02
    53    4.253426278522e-03
    54    6.131497540381e-01
    55    2.603930307415e-01
    56   -1.662936531883e-01
    57    1.427213039212e-01
    58   -9.543111153179e-02
    59    6.502650393505e-01
    60   -3.296749898749e-02
    61    1.285731291008e-01
    62   -1.168651158439e-01
    63    5.542439265855e-01
    64   -7.710542575898e-01
    65    1.313016321123e+00
    66   -2.306792210484e-03
    67   -2.818147833663e-02
    68   -1.101127862322e-02
    69   -3.600659441989e-02
    70   -1.222192642202e-02
    71    2.000269567470e-02
    72    1.493343004674e-01
    73    2.296817903295e-01
    74   -1.667964142931e-03
    75   -6.241363041087e-03
    76   -9.479066475407e-02
    77   -2.238164112669e-02
    78   -2.156797472653e-02
    79   -2.544194453575e-02
    80    2.268855581704e-01
    81   -1.723156134787e-02
    82   -1.761585492715e-01
    83    1.816939122115e-01
    84   -6.530947712443e-03
    85   -6.582891702120e-02
    86    2.218345589231e-02
    87   -9.083675387497e-03
    88   -3.919127221940e-03
    89    3.917180780900e-01
    90   -1.307055006325e-01
    91   -2.232441257199e-02
    92    9.241302532409e-02
    93    6.687472437177e-02
    94   -3.238715310126e-01
    95   -8.904812834855e-02
    96    8.562267298649e-02
    97   -4.316782927571e-03
    98   -5.360630534947e-02
    99   -9.309162576000e-03
   100    6.926776750396e-03
   101   -2.680160205146e-02
   102    2.318037749839e-01
   103   -6.353906045142e-02
   104   -7.268476243720e-03
   105    1.416712371394e-01
   106   -7.421022646682e-02
   107    1.539304468634e-01
   108    2.536502162155e-02
   109   -1.704404688120e-01
   110    4.479557808394e-02
   111   -1.634372365605e-01
   112   -6.972545867812e-03
   113   -7.086272990456e-02
   114    2.334008642032e-02
   115   -1.136336658068e-02
   116    1.410440927584e-02
   117    3.639114123031e-01
   118   -1.518170504877e-01
   119   -5.246796854447e-02
   120   -1.293101378951e-01
   121   -8.940345992100e-02
   122    8.815719426352e-02
   123    5.635172746980e-03
   124    6.539529097528e-02
   125   -6.391169691475e-02
   126    1.042596633668e-01
   127   -4.498295687329e-03
   128   -5.769050545361e-02
   129   -1.666784786545e-02
   130    2.159105653399e-02
   131    1.850604372319e-02
   132    2.122902418307e-01
   133   -5.066065346901e-02
   134   -8.524739499312e-02
   135   -1.320657677311e-01
   136   -7.762645982992e-03
   137   -1.020746509557e-01
   138   -1.724588486097e-02
   139   -1.461480373144e-02
   140    2.158471671830e-02
   141    2.844542048756e-01
   142   -2.735248194535e-02
   143   -1.641817999416e-01
   144   -5.529608399564e-03
   145   -2.702672285767e-03
   146   -6.771949453163e-02
   147   -2.840963396127e-02
   148    4.678109569091e-03
   149   -7.432908374013e-04
   150    8.216698195463e-02
   151   -1.095801451723e-01
   152    9.052870927829e-02
   153    5.076582356248e-03
   154    4.915962763409e-03
   155   -2.507102903770e-01
   156    8.533991373557e-02
   157   -7.905952206860e-01
   158    1.932401078947e-02
   159   -3.891993398027e-01
   160    6.222299827406e-02
   161   -4.471670965753e-01
   162    7.610593521856e-02
   163   -8.129403291489e-01
   164    2.165738935952e-02
   165   -2.443353172381e-01
   166   -9.324633132053e-03
   167   -3.234548552121e-01
   168   -1.088859692633e-02
   169   -8.430763123731e-02
   170    8.708987511296e-03
   171   -1.380974561270e-02
   172    6.394149376092e-03
   173   -3.074545587700e-01
   174   -1.551016009826e-03
   175    3.162666803666e-02
   176    4.959982644802e-03
   177   -7.752895068128e-02
   178   -2.228489538588e-03
   179   -4.949050630826e-04
   180    8.820752500252e-03
   181   -3.234259880866e-01
   182    3.387539978779e-03
   183   -7.602756587586e-02
   184    7.234107280719e-03
   185   -7.464385189156e-02
   186   -4.173938621731e-03
   187   -1.154526653388e-01
   188   -4.384998605877e-03
   189   -3.403745499618e-01
   190   -2.688393634487e-02
   191   -8.098213896356e-02
   192   -2.835372132987e-02
   193    3.359413265188e-01
   194    9.931269114038e-03
   195    2.145373139358e-01
   196    5.177158247086e-03
   197    6.967624807682e-02
   198    4.842253507400e-02
   199   -3.198064314708e-02
   200    2.591848633931e-02
   201   -4.681750256997e-02
   202   -2.263772731519e-01
   203   -8.436632268574e-02
   204   -1.791286649553e-01
   205   -6.229371499356e-02
   206    5.448799888346e-01
   207    1.398302366298e-02
   208    1.179467518362e-01
   209    6.510027288423e-03
   210    3.911259772884e-02
   211   -2.953672628630e-03
   212   -6.467341659752e-01
   213   -2.572482075966e-01
   214   -1.638765637389e-01
   215   -8.118427605999e-03
   216   -6.253661792560e-02
   217    4.729339227620e-02
   218   -4.712507889939e-02
   219    6.516207854463e-01
   220    1.928252959974e-02
   221   -1.139332135006e-01
   222   -4.898519284821e-03
   223   -3.851556433538e-02
   224    1.286203252337e-02
   225    1.246375563465e-01
   226   -3.358793852296e-02
   227    6.791717736334e-03
   228    1.887924280620e-02
   229   -7.028341759147e-01
   230    2.670809228877e-01
   231   -1.634457675337e-01
   232   -1.077591944332e-01
   233   -2.221473174392e-02
   234    1.983793498033e-01
   235    2.957398659234e-03
   236    9.119532630869e-03
   237    4.727351803733e-02
   238   -2.267558646850e-02
   239    1.547670253319e-02
   240   -2.816294686641e-01
   241   -2.561874428120e-01
   242   -7.269258687378e-02
   243   -2.343499904040e-01
   244   -4.130161281962e-03
   245   -3.101504012297e-02
   246   -5.364719332519e-03
   247    1.225573465935e-02
   248    9.565241600434e-04
   249    2.254907588494e-01
   250   -1.561489377493e-01
   251   -3.727362956765e-02
   252    7.226134735922e-02
   253    6.555434159214e-03
   254    2.407817521728e-01
   255   -7.065739687197e-03
   256   -2.878318283099e-02
   257   -3.024557504518e-02
   258   -1.853739025531e-02
   259   -1.888785937432e-02
   260    2.550340834129e-01
   261    2.256688024576e-02
   262   -3.117693587370e-03
   263    3.639929582742e-01
   264    2.120225642461e-02
   265    3.616760170107e-01
   266    2.157346975867e-01
   267   -1.329770224767e+00
   268    6.031161468681e-02
   269   -2.725243844864e-01
   270   -1.658958369027e-02
   271   -1.333771898594e-01
   272    2.508825952474e+00
   273   -8.908276634395e-02
   274   -3.804008234996e-03
   275   -4.504990895472e-02
   276    4.414601689550e-02
   277    4.192160048749e-02
   278   -4.617705305381e-02
   279   -1.523350946992e-01
   280   -3.982105358582e-01
   281   -2.504066496566e-01
   282    2.014930773512e-01
   283   -2.580187839040e-03
   284    6.308182368582e-01
   285   -4.706549005162e-02
   286    2.035518733924e-01
   287    7.200824667784e-02
   288   -3.300057441263e-01
   289   -3.526368416219e-02
   290    7.701815124425e-02
   291    4.694617780235e-02
   292    1.941827114334e-01
   293   -6.804352691492e-02
   294    1.130240906175e-01
   295   -1.341028847457e+00
   296    4.221920437939e-01
   297   -2.150003402889e-02
   298    8.499902521320e-04
   299   -7.028762088916e-02
   300    4.391366407592e-01
   301    1.175925825369e-02
   302    2.086232125138e-01
   303    1.440650524946e-02
   304    1.440499265661e-01
   305   -1.923983419886e-02
   306    1.751932276225e-02
   307   -3.335263423215e-02
   308   -7.047196846639e-01
   309    2.523526186829e-01
   310   -6.147355766550e-02
   311    2.302645426739e-01
   312    6.934024312128e-03
   313    8.684419912916e-02
   314   -1.751782534467e-02
   315   -2.053635126910e-02
   316   -4.601704434606e-02
   317   -2.764770467792e-01
   318   -1.134741563619e-01
   319   -3.203261767007e-02
   320    1.862478451701e-01
   321    2.104862863871e-02
   322    3.405337949577e-01
   323   -1.421314680751e-02
   324    4.185939346076e-01
   325    4.989900005329e-04
   326    3.485041579513e-04
   327    1.778273116409e-02
   328   -3.274606236431e-02
   329   -5.608308926544e-03
   330   -2.056943501244e-01
   331    5.145739826434e-02
   332    3.484869736693e-01
   333   -1.507988662597e-02
   334   -2.698730785242e-03
   335    1.291996313139e-01
   336   -6.704554386429e-02
   337    3.427448540873e-01
   338    3.436535142205e-03
   339    2.553366573343e-02
   340    1.599294015486e-02
   341   -3.472044735434e-03
   342   -1.391682694180e-02
   343   -2.874013492614e-01
   344   -6.432621135988e-02
   345   -1.283196544032e-01
   346    1.909753302806e-02
   347   -2.370212935242e-02
   348    3.974718993515e-01
   349    1.483501697096e-02
   350    2.399883738678e-01
   351   -8.212735433581e-02
   352    3.383660875713e-01
   353   -3.308967005620e-02
   354    1.047051147093e-01
   355   -1.132243152672e-02
   356    1.518797527201e-01
   357    3.883917984813e-02
   358    2.228982308929e+00
[5D]


======= END OF MOLDEN-FORMATTED INPUT FILE =======


        *************************************************************
        *                                                           *
        *  Thank you very much for using Q-Chem.  Have a nice day.  *
        *                                                           *
        *************************************************************


0 sent ACK to 0 
now end server 0 ... 
